/*--------------------------------*- C++ -*----------------------------------*\
| =========                 |                                                 |
| \\      /  F ield         | OpenFOAM: The Open Source CFD Toolbox           |
|  \\    /   O peration     | Version:  4.1                                   |
|   \\  /    A nd           | Web:      www.OpenFOAM.org                      |
|    \\/     M anipulation  |                                                 |
\*---------------------------------------------------------------------------*/
FoamFile
{
    version     2.0;
    format      ascii;
    class       volVectorField;
    location    "0.28";
    object      U;
}
// * * * * * * * * * * * * * * * * * * * * * * * * * * * * * * * * * * * * * //

dimensions      [0 1 -1 0 0 0 0];

internalField   nonuniform List<vector> 
10000
(
(0 0 0)
(1.29126e-16 0 0)
(2.88173e-16 0 0)
(9.24367e-17 1.49619e-16 0)
(-1.1999e-16 0 0)
(-2.55793e-16 0 0)
(-2.34148e-16 0 0)
(-3.18924e-17 0 0)
(-1.66123e-23 0 0)
(2.03994e-16 1.43114e-16 0)
(4.54401e-16 0 0)
(1.27098e-16 -1.53956e-16 0)
(-2.47991e-16 0 0)
(2.38566e-17 0 0)
(1.57561e-16 0 0)
(-4.32509e-17 1.30104e-16 0)
(-2.46351e-16 0 0)
(-1.21095e-16 0 0)
(-2.40277e-17 0 0)
(-1.6415e-16 0 0)
(3.31379e-21 0 0)
(1.12111e-16 1.17093e-16 0)
(2.86312e-17 0 0)
(1.00116e-16 0 0)
(-1.0795e-16 3.25259e-17 0)
(-2.90834e-16 -7.80623e-17 0)
(2.82725e-18 -3.81638e-16 0)
(7.4202e-12 8.30496e-16 0)
(2.17346e-08 -2.1684e-18 0)
(7.12526e-06 2.63462e-15 0)
(0.000370826 4.35984e-15 0)
(0.00460991 -2.96055e-16 0)
(0.0211993 8.28793e-15 0)
(0.0531931 3.10487e-15 0)
(0.0955035 7.27786e-15 0)
(0.143011 7.0838e-15 0)
(0.193124 -1.2669e-14 0)
(0.244728 7.09967e-15 0)
(0.297312 -5.78224e-15 0)
(0.350611 1.91962e-14 0)
(0.404483 3.98291e-14 0)
(0.458857 4.41586e-14 0)
(0.513716 1.77715e-14 0)
(0.569067 1.37222e-14 0)
(0.624932 1.10961e-14 0)
(0.681287 2.63663e-14 0)
(0.73801 2.47809e-14 0)
(0.794609 1.0849e-14 0)
(0.849602 -3.20586e-14 0)
(0.899009 -1.26684e-14 0)
(0.932005 5.00196e-15 0)
(0.938603 1.08154e-14 0)
(0.924611 1.25582e-14 0)
(0.926112 1.34767e-14 0)
(0.927313 7.43334e-15 0)
(0.927607 6.72823e-15 0)
(0.927815 5.20311e-15 0)
(0.927922 3.23497e-15 0)
(0.928094 3.36482e-15 0)
(0.928151 4.91565e-15 0)
(0.927972 7.05613e-15 0)
(0.928098 9.19987e-15 0)
(0.928705 2.50486e-15 0)
(0.929152 8.49996e-15 0)
(0.930695 -1.01119e-15 0)
(0.931425 -3.76449e-15 0)
(0.926414 -2.71102e-15 0)
(0.924409 -1.91746e-15 0)
(0.924776 -9.32809e-16 0)
(0.925854 -1.83556e-15 0)
(0.928714 -4.84125e-15 0)
(0.929117 -6.33852e-15 0)
(0.92313 -6.63087e-15 0)
(0.878141 -5.21609e-15 0)
(0.661055 -4.42926e-15 0)
(0.198532 -4.95145e-16 0)
(0.00745801 1.76662e-16 0)
(2.15996e-05 -1.10586e-16 0)
(3.51385e-09 4.65121e-16 0)
(9.54317e-14 3.25259e-18 0)
(3.27239e-16 0 0)
(1.44834e-17 0 0)
(-1.42077e-16 0 0)
(6.44926e-17 0 0)
(2.68238e-16 9.97462e-17 0)
(8.5672e-17 0 0)
(-1.73112e-16 0 0)
(-7.55759e-17 0 0)
(-7.16951e-17 0 0)
(-1.79208e-16 0 0)
(-2.51743e-16 -6.50519e-18 0)
(-4.04242e-16 0 0)
(-2.02446e-16 8.02307e-17 0)
(5.78891e-17 0 0)
(2.68432e-16 0 0)
(4.01843e-17 0 0)
(-2.04055e-16 1.38777e-16 0)
(-2.59685e-16 8.13149e-17 0)
(-1.61737e-16 1.40946e-17 0)
(-2.7105e-17 9.21569e-17 0)
(0 0 0)
(1.73454e-16 0 0)
(2.96165e-16 1.38777e-16 0)
(1.00119e-16 3.33933e-16 0)
(-1.27299e-16 1.25767e-16 0)
(-3.12112e-16 2.47197e-16 0)
(-2.87995e-16 4.98731e-17 0)
(-3.15472e-17 0 0)
(-2.4769e-21 0 0)
(2.23719e-16 0 0)
(5.21238e-16 0 0)
(1.57348e-16 0 0)
(-2.05656e-16 0 0)
(5.22131e-17 0 0)
(1.59791e-16 1.30104e-16 0)
(-4.58288e-17 3.14417e-16 0)
(-2.57621e-16 1.27935e-16 0)
(-1.49744e-16 0 0)
(-4.75863e-17 0 0)
(-2.15133e-16 0 0)
(-5.31671e-19 0 0)
(1.54139e-16 2.1684e-18 0)
(4.96982e-17 0 0)
(7.13732e-17 1.71303e-16 0)
(-1.98367e-16 3.72964e-16 0)
(-4.14626e-16 1.6263e-16 0)
(-1.90627e-17 1.0842e-16 0)
(7.42146e-12 6.87382e-16 0)
(2.17346e-08 -1.47451e-16 0)
(7.12526e-06 8.28332e-16 0)
(0.000370826 1.10471e-14 0)
(0.00460991 -8.12629e-15 0)
(0.0211993 1.25169e-14 0)
(0.0531931 2.04193e-17 0)
(0.0955035 5.58985e-15 0)
(0.143011 -3.55416e-17 0)
(0.193124 4.76752e-15 0)
(0.244728 1.25972e-14 0)
(0.297312 -7.5899e-15 0)
(0.350611 2.68359e-14 0)
(0.404483 1.3859e-14 0)
(0.458857 6.5348e-15 0)
(0.513716 2.66231e-14 0)
(0.569067 2.25454e-14 0)
(0.624932 1.30816e-14 0)
(0.681287 1.0029e-14 0)
(0.73801 1.97115e-14 0)
(0.794609 1.24733e-14 0)
(0.849602 -3.68911e-15 0)
(0.899009 -4.67188e-16 0)
(0.932005 7.42974e-15 0)
(0.938603 1.00952e-14 0)
(0.924611 9.42715e-15 0)
(0.926112 1.2902e-14 0)
(0.927313 5.18642e-15 0)
(0.927607 6.1595e-15 0)
(0.927815 3.60533e-15 0)
(0.927922 1.03039e-15 0)
(0.928094 2.26579e-15 0)
(0.928151 3.60166e-15 0)
(0.927972 7.33872e-15 0)
(0.928098 9.24371e-15 0)
(0.928705 5.05774e-15 0)
(0.929152 7.44944e-15 0)
(0.930695 5.44677e-15 0)
(0.931425 1.30895e-15 0)
(0.926414 -1.55142e-15 0)
(0.924409 -7.49145e-16 0)
(0.924776 7.29127e-16 0)
(0.925854 3.01e-15 0)
(0.928714 -2.18302e-15 0)
(0.929117 -2.06074e-15 0)
(0.92313 -3.48893e-15 0)
(0.878141 -4.17255e-15 0)
(0.661055 -4.95132e-15 0)
(0.198532 2.01101e-15 0)
(0.00745801 4.72895e-16 0)
(2.15996e-05 8.34816e-17 0)
(3.51385e-09 1.52764e-15 0)
(9.53853e-14 1.12757e-16 0)
(2.76723e-16 3.79469e-17 0)
(2.35609e-17 2.49366e-17 0)
(-1.30733e-16 1.01915e-16 0)
(7.04935e-17 1.68051e-16 0)
(2.76922e-16 2.02745e-16 0)
(9.19232e-17 2.1684e-17 0)
(-1.75007e-16 0 0)
(-8.99742e-17 0 0)
(-1.07422e-16 0 0)
(-2.24309e-16 1.30104e-17 0)
(-1.57566e-16 1.19262e-17 0)
(-2.72809e-16 1.61546e-16 0)
(-1.55106e-16 2.82976e-16 0)
(2.98494e-17 9.64936e-17 0)
(2.39339e-16 0 0)
(1.72687e-17 2.27682e-17 0)
(-2.19788e-16 2.58039e-16 0)
(-3.31051e-16 2.82976e-16 0)
(-2.52714e-16 2.02745e-16 0)
(-2.30934e-16 2.9707e-16 0)
(0 0 0)
(2.44377e-16 0 0)
(5.27856e-16 0 0)
(1.16292e-16 9.97462e-17 0)
(-3.62458e-16 3.44775e-16 0)
(-3.24814e-16 5.6812e-16 0)
(-3.12927e-16 2.45029e-16 0)
(-2.79163e-17 0 0)
(-1.37604e-19 0 0)
(2.55494e-16 0 0)
(5.7999e-16 0 0)
(2.16208e-16 2.1684e-18 0)
(-1.46553e-16 4.55363e-17 0)
(7.78058e-17 2.68881e-16 0)
(3.20187e-16 1.32272e-16 0)
(-5.1421e-17 7.58939e-17 0)
(-4.1696e-16 0 0)
(-1.72851e-16 0 0)
(-8.64779e-17 1.01915e-16 0)
(-2.41815e-16 0 0)
(-7.20659e-19 0 0)
(2.24173e-16 0 0)
(8.67744e-17 1.10588e-16 0)
(1.59767e-16 4.4669e-16 0)
(-1.11638e-16 7.13402e-16 0)
(-3.70815e-16 4.42353e-16 0)
(-8.84525e-17 8.23991e-17 0)
(7.42125e-12 -3.01407e-16 0)
(2.17346e-08 1.18828e-15 0)
(7.12526e-06 -3.7275e-15 0)
(0.000370826 1.77452e-14 0)
(0.00460991 -1.10455e-14 0)
(0.0211993 1.15444e-14 0)
(0.0531931 2.46733e-15 0)
(0.0955035 5.95686e-15 0)
(0.143011 9.71878e-16 0)
(0.193124 7.383e-15 0)
(0.244728 1.46119e-14 0)
(0.297312 -1.04193e-14 0)
(0.350611 2.98505e-14 0)
(0.404483 7.23856e-15 0)
(0.458857 -6.8937e-15 0)
(0.513716 2.68315e-14 0)
(0.569067 2.11084e-14 0)
(0.624932 1.32247e-14 0)
(0.681287 3.66463e-15 0)
(0.73801 1.82269e-14 0)
(0.794609 1.01607e-14 0)
(0.849602 4.55222e-15 0)
(0.899009 5.72737e-15 0)
(0.932005 4.29712e-15 0)
(0.938603 9.61348e-15 0)
(0.924611 9.79727e-15 0)
(0.926112 1.42611e-14 0)
(0.927313 4.74586e-15 0)
(0.927607 3.9084e-15 0)
(0.927815 1.95351e-15 0)
(0.927922 2.75771e-16 0)
(0.928094 -1.00787e-16 0)
(0.928151 2.47557e-15 0)
(0.927972 6.58413e-15 0)
(0.928098 7.27519e-15 0)
(0.928705 5.75877e-15 0)
(0.929152 8.93788e-15 0)
(0.930695 7.92555e-15 0)
(0.931425 6.15477e-15 0)
(0.926414 4.33773e-15 0)
(0.924409 -5.59925e-16 0)
(0.924776 8.1885e-16 0)
(0.925854 4.04183e-15 0)
(0.928714 -7.84124e-16 0)
(0.929117 -4.80719e-16 0)
(0.92313 -9.57695e-16 0)
(0.878141 -1.70074e-15 0)
(0.661055 2.55949e-16 0)
(0.198532 4.48397e-15 0)
(0.00745801 9.05933e-16 0)
(2.15996e-05 7.65429e-16 0)
(3.51385e-09 5.06321e-16 0)
(9.52547e-14 3.90311e-16 0)
(2.65656e-16 3.22007e-16 0)
(1.56647e-16 2.74302e-16 0)
(7.29362e-17 3.93564e-16 0)
(1.90227e-16 3.67543e-16 0)
(1.59394e-16 1.43114e-16 0)
(-1.065e-17 -6.07151e-17 0)
(-1.48033e-16 2.1684e-17 0)
(-9.20625e-17 1.35525e-16 0)
(-1.66966e-16 3.25259e-17 0)
(-2.68794e-16 1.35525e-16 0)
(-1.30304e-16 1.40946e-16 0)
(-8.94527e-17 3.48028e-16 0)
(-1.45525e-16 4.86805e-16 0)
(-2.72685e-17 3.85975e-16 0)
(1.50127e-16 2.11419e-16 0)
(3.87119e-17 8.56517e-17 0)
(-1.77421e-16 2.82976e-16 0)
(-3.83615e-16 4.87889e-16 0)
(-3.41801e-16 4.02238e-16 0)
(-4.40184e-16 5.05236e-16 0)
(-2.1684e-18 -2.1684e-18 0)
(2.7947e-16 -2.1684e-18 0)
(6.11597e-16 -2.1684e-18 0)
(2.01288e-16 3.90311e-17 0)
(-2.97846e-16 2.86228e-16 0)
(-6.78772e-16 1.92987e-16 0)
(-3.57649e-16 -2.1684e-18 0)
(-2.01741e-17 -2.1684e-18 0)
(-2.41549e-18 0 0)
(1.30303e-16 0 0)
(4.00281e-16 -4.33679e-18 0)
(2.17393e-16 -1.27935e-16 0)
(1.65937e-16 2.2985e-16 0)
(2.04822e-16 5.91972e-16 0)
(2.61624e-16 3.14417e-16 0)
(-5.42036e-17 0 0)
(-3.55357e-16 -2.1684e-18 0)
(-1.02425e-16 1.17093e-16 0)
(-9.49047e-17 3.53449e-16 0)
(-2.25486e-16 1.73472e-16 0)
(6.1444e-18 0 0)
(2.39562e-16 1.84314e-16 0)
(9.86265e-17 3.70796e-16 0)
(2.33972e-16 1.86482e-16 0)
(-1.08945e-16 2.79723e-16 0)
(-4.64592e-16 1.36609e-16 0)
(-6.9922e-17 -4.33679e-18 0)
(7.4203e-12 6.80877e-16 0)
(2.17346e-08 5.76143e-15 0)
(7.12526e-06 -6.73942e-15 0)
(0.000370826 1.38517e-14 0)
(0.00460991 -1.31483e-15 0)
(0.0211993 3.51586e-15 0)
(0.0531931 5.22507e-15 0)
(0.0955035 2.65965e-15 0)
(0.143011 2.8997e-15 0)
(0.193124 6.65712e-15 0)
(0.244728 1.89762e-14 0)
(0.297312 -1.34213e-14 0)
(0.350611 2.746e-14 0)
(0.404483 6.46742e-15 0)
(0.458857 -1.16551e-14 0)
(0.513716 2.51985e-14 0)
(0.569067 2.1193e-14 0)
(0.624932 1.17386e-14 0)
(0.681287 3.27667e-15 0)
(0.73801 1.3809e-14 0)
(0.794609 8.97594e-15 0)
(0.849602 4.87485e-15 0)
(0.899009 4.61008e-15 0)
(0.932005 2.36225e-15 0)
(0.938603 9.72988e-15 0)
(0.924611 1.22113e-14 0)
(0.926112 1.08302e-14 0)
(0.927313 5.73744e-15 0)
(0.927607 3.25996e-15 0)
(0.927815 2.20434e-15 0)
(0.927922 1.339e-15 0)
(0.928094 -1.34233e-15 0)
(0.928151 2.02227e-15 0)
(0.927972 4.6747e-15 0)
(0.928098 5.14934e-15 0)
(0.928705 7.28296e-15 0)
(0.929152 9.74004e-15 0)
(0.930695 5.55454e-15 0)
(0.931425 3.81081e-15 0)
(0.926414 5.42408e-15 0)
(0.924409 1.47457e-15 0)
(0.924776 1.75011e-15 0)
(0.925854 2.69541e-15 0)
(0.928714 4.69037e-16 0)
(0.929117 2.11096e-15 0)
(0.92313 1.28104e-15 0)
(0.878141 -6.94982e-16 0)
(0.661055 4.34479e-15 0)
(0.198532 9.26668e-16 0)
(0.00745801 3.38567e-15 0)
(2.15996e-05 1.70541e-15 0)
(3.51385e-09 5.01984e-16 0)
(9.53486e-14 6.45098e-16 0)
(2.21207e-16 6.37509e-16 0)
(3.2268e-16 5.17163e-16 0)
(2.60164e-16 6.20161e-16 0)
(4.78267e-17 4.83552e-16 0)
(-1.45708e-16 2.77555e-16 0)
(-3.01852e-17 1.57209e-16 0)
(2.16858e-17 1.95156e-16 0)
(-1.48199e-16 2.01661e-16 0)
(-2.68803e-16 4.66205e-17 0)
(-1.66463e-16 1.48535e-16 0)
(-6.25971e-17 4.55363e-17 0)
(3.41261e-17 1.76724e-16 0)
(-1.60589e-16 3.72964e-16 0)
(-2.00456e-16 5.85467e-16 0)
(-6.60567e-17 4.74879e-16 0)
(-1.43097e-16 2.91649e-16 0)
(-6.82051e-17 1.73472e-16 0)
(-2.4492e-16 2.8406e-16 0)
(-4.76528e-16 2.0925e-16 0)
(-6.74371e-16 2.73218e-16 0)
(-2.1684e-18 2.1684e-18 0)
(2.60995e-16 2.1684e-18 0)
(5.90569e-16 2.1684e-18 0)
(1.71648e-16 1.66967e-16 0)
(-5.69944e-16 -1.58293e-16 0)
(-6.34797e-16 -5.42099e-16 0)
(-2.97679e-16 -2.40692e-16 0)
(-5.26049e-18 2.1684e-18 0)
(-1.54604e-17 0 0)
(1.4905e-16 -2.1684e-18 0)
(4.09774e-16 4.98731e-17 0)
(2.28862e-16 2.01661e-16 0)
(4.07982e-16 5.20415e-17 0)
(2.24725e-16 2.32018e-16 0)
(2.78108e-16 4.98731e-17 0)
(-5.36202e-17 9.32411e-17 0)
(-3.88712e-16 2.1684e-18 0)
(-1.2251e-16 2.1684e-18 0)
(-9.44671e-17 -1.51788e-17 0)
(-2.75974e-16 0 0)
(5.7674e-17 0 0)
(3.31322e-16 2.60208e-16 0)
(7.36222e-17 3.68627e-17 0)
(-2.09331e-17 -6.50519e-17 0)
(-7.5331e-17 -3.29596e-16 0)
(-2.57264e-16 -1.49619e-16 0)
(2.03494e-16 -1.10588e-16 0)
(7.42291e-12 7.04729e-16 0)
(2.17346e-08 8.25292e-15 0)
(7.12526e-06 -1.12866e-14 0)
(0.000370826 1.25806e-15 0)
(0.00460991 6.00601e-15 0)
(0.0211993 -4.53474e-15 0)
(0.0531931 6.72589e-15 0)
(0.0955035 -3.51718e-15 0)
(0.143011 6.0678e-15 0)
(0.193124 1.48377e-15 0)
(0.244728 2.20438e-14 0)
(0.297312 -1.37412e-14 0)
(0.350611 2.30602e-14 0)
(0.404483 9.49173e-15 0)
(0.458857 -1.37435e-14 0)
(0.513716 2.24569e-14 0)
(0.569067 1.83766e-14 0)
(0.624932 1.00356e-14 0)
(0.681287 2.77072e-15 0)
(0.73801 9.21694e-15 0)
(0.794609 7.8771e-15 0)
(0.849602 2.96848e-15 0)
(0.899009 5.76445e-15 0)
(0.932005 4.0056e-15 0)
(0.938603 5.39613e-15 0)
(0.924611 7.85511e-15 0)
(0.926112 3.97333e-15 0)
(0.927313 5.58381e-15 0)
(0.927607 3.66642e-15 0)
(0.927815 1.85528e-15 0)
(0.927922 2.59862e-15 0)
(0.928094 -3.49482e-15 0)
(0.928151 -4.79354e-16 0)
(0.927972 3.20508e-15 0)
(0.928098 3.42441e-15 0)
(0.928705 7.56606e-15 0)
(0.929152 4.77417e-15 0)
(0.930695 5.48191e-15 0)
(0.931425 -1.98186e-15 0)
(0.926414 5.34521e-15 0)
(0.924409 3.92463e-15 0)
(0.924776 1.67741e-15 0)
(0.925854 2.20215e-15 0)
(0.928714 -4.99828e-16 0)
(0.929117 3.45421e-15 0)
(0.92313 8.18899e-16 0)
(0.878141 -1.31067e-15 0)
(0.661055 6.69279e-15 0)
(0.198532 -4.66192e-15 0)
(0.00745801 9.32756e-15 0)
(2.15996e-05 -3.26337e-16 0)
(3.51385e-09 6.81961e-16 0)
(9.52409e-14 7.70865e-16 0)
(9.46305e-17 7.57855e-16 0)
(1.92052e-16 6.40761e-16 0)
(6.26713e-17 4.21753e-16 0)
(-1.35097e-16 3.00323e-16 0)
(-1.48808e-16 4.03322e-16 0)
(-3.46034e-17 4.0549e-16 0)
(-2.22576e-17 3.68627e-16 0)
(-3.49858e-16 2.24429e-16 0)
(-4.96168e-16 1.8865e-16 0)
(-3.38529e-16 -2.49366e-17 0)
(-1.47316e-17 -1.36609e-16 0)
(2.23536e-16 -1.18178e-16 0)
(9.45429e-17 2.49366e-17 0)
(4.01538e-17 3.83806e-16 0)
(3.60216e-17 6.34256e-16 0)
(-1.82662e-16 5.05236e-16 0)
(-2.91282e-16 1.23599e-16 0)
(-4.24629e-16 -1.35525e-16 0)
(-6.178e-16 -8.02307e-17 0)
(-7.86044e-16 -1.94071e-16 0)
(0 0 0)
(1.35303e-16 0 0)
(2.82858e-16 -1.38777e-16 0)
(-1.14134e-16 -4.01153e-16 0)
(-6.61434e-16 -5.59446e-16 0)
(-3.39513e-16 -2.45029e-16 0)
(-8.50521e-17 -2.1684e-17 0)
(3.2028e-17 0 0)
(-4.16314e-17 0 0)
(1.63554e-16 1.95156e-17 0)
(4.23733e-16 2.79723e-16 0)
(2.3201e-16 4.597e-16 0)
(-2.73691e-17 2.01661e-16 0)
(8.47977e-17 -1.0842e-16 0)
(3.07057e-16 -6.50519e-17 0)
(-4.96711e-17 -9.54094e-17 0)
(-4.03043e-16 0 0)
(-1.59321e-16 -9.97462e-17 0)
(-2.62176e-17 -3.79469e-16 0)
(-2.62851e-17 -1.36609e-16 0)
(2.33454e-16 0 0)
(5.85742e-17 1.73472e-17 0)
(-1.8808e-16 -2.25513e-16 0)
(-1.95894e-17 -4.33679e-17 0)
(4.39756e-19 -1.14925e-16 0)
(-5.58226e-17 0 0)
(3.41263e-16 1.14925e-16 0)
(7.42218e-12 -5.09573e-16 0)
(2.17347e-08 4.0072e-15 0)
(7.12526e-06 -2.14456e-15 0)
(0.000370826 -1.02532e-14 0)
(0.00460991 1.15766e-14 0)
(0.0211993 -6.88711e-15 0)
(0.0531931 6.22562e-15 0)
(0.0955035 -7.67663e-15 0)
(0.143011 9.47979e-15 0)
(0.193124 -1.36983e-15 0)
(0.244728 2.07806e-14 0)
(0.297312 -1.30479e-14 0)
(0.350611 1.79627e-14 0)
(0.404483 1.03664e-14 0)
(0.458857 -1.35389e-14 0)
(0.513716 1.72898e-14 0)
(0.569067 1.41017e-14 0)
(0.624932 8.00646e-15 0)
(0.681287 8.29916e-16 0)
(0.73801 7.67955e-15 0)
(0.794609 7.56028e-15 0)
(0.849602 3.2605e-15 0)
(0.899009 6.61849e-15 0)
(0.932005 4.29041e-15 0)
(0.938603 4.34886e-15 0)
(0.924611 2.94317e-15 0)
(0.926112 2.15239e-15 0)
(0.927313 4.02186e-15 0)
(0.927607 2.03327e-15 0)
(0.927815 -6.27539e-16 0)
(0.927922 1.11297e-15 0)
(0.928094 -6.78196e-15 0)
(0.928151 -2.90608e-15 0)
(0.927972 8.48452e-16 0)
(0.928098 8.63703e-16 0)
(0.928705 4.83226e-15 0)
(0.929152 1.50122e-15 0)
(0.930695 4.66658e-15 0)
(0.931425 -2.59051e-15 0)
(0.926414 5.0046e-15 0)
(0.924409 1.97057e-15 0)
(0.924776 -3.11452e-16 0)
(0.925854 1.35775e-15 0)
(0.928714 1.20082e-16 0)
(0.929117 2.27342e-15 0)
(0.92313 6.28182e-16 0)
(0.878141 -1.82898e-15 0)
(0.661055 5.94272e-15 0)
(0.198532 -5.47702e-15 0)
(0.00745801 6.71533e-15 0)
(2.15996e-05 -1.52977e-15 0)
(3.51385e-09 -9.41084e-16 0)
(9.50297e-14 4.49942e-16 0)
(5.45094e-17 4.82468e-16 0)
(1.50909e-17 4.16332e-16 0)
(-5.54732e-17 1.70219e-16 0)
(-1.73948e-16 5.09573e-17 0)
(1.65317e-17 2.28766e-16 0)
(1.33007e-16 4.40184e-16 0)
(-6.00885e-17 2.12503e-16 0)
(-4.40788e-16 5.42099e-17 0)
(-6.87339e-16 8.89043e-17 0)
(-5.13496e-16 -8.78201e-17 0)
(-1.71974e-16 4.33679e-18 0)
(8.35573e-17 -2.56955e-16 0)
(3.42434e-16 -2.05998e-16 0)
(3.40904e-16 8.56517e-17 0)
(1.08011e-16 3.83806e-16 0)
(-2.63823e-16 2.90565e-16 0)
(-5.27112e-16 -7.37255e-17 0)
(-5.71468e-16 -3.08997e-16 0)
(-4.68745e-16 -2.52618e-16 0)
(-5.60531e-16 -3.54533e-16 0)
(0 0 0)
(1.52079e-16 -9.10727e-17 0)
(-3.17726e-17 -4.4669e-16 0)
(-8.05856e-17 -8.17485e-16 0)
(-3.14265e-16 -5.37762e-16 0)
(-1.04329e-16 -1.25767e-16 0)
(1.45199e-16 0 0)
(9.74843e-17 0 0)
(-5.67638e-17 0 0)
(1.62832e-16 0 0)
(4.14636e-16 5.42099e-17 0)
(1.39838e-17 2.10334e-16 0)
(-3.31063e-16 0 0)
(-4.28103e-17 -5.20415e-17 0)
(2.07172e-16 0 0)
(2.37401e-17 -9.32411e-17 0)
(-2.40035e-16 0 0)
(-1.9376e-16 0 0)
(-3.56092e-17 -1.17093e-16 0)
(9.08754e-18 0 0)
(2.18663e-16 0 0)
(1.91825e-18 -9.32411e-17 0)
(-1.71903e-16 -4.55363e-17 0)
(-2.34052e-17 0 0)
(-1.46393e-18 0 0)
(-2.44442e-17 0 0)
(3.74257e-16 0 0)
(7.42185e-12 -1.32272e-16 0)
(2.17347e-08 4.22837e-16 0)
(7.12526e-06 2.02746e-15 0)
(0.000370826 -1.41988e-14 0)
(0.00460991 1.61024e-14 0)
(0.0211993 -1.52887e-15 0)
(0.0531931 5.83085e-15 0)
(0.0955035 -6.96378e-15 0)
(0.143011 1.09015e-14 0)
(0.193124 -1.94081e-15 0)
(0.244728 1.68276e-14 0)
(0.297312 -1.06186e-14 0)
(0.350611 1.26738e-14 0)
(0.404483 7.66045e-15 0)
(0.458857 -9.97922e-15 0)
(0.513716 1.002e-14 0)
(0.569067 1.06774e-14 0)
(0.624932 6.42943e-15 0)
(0.681287 1.42386e-15 0)
(0.73801 9.25706e-15 0)
(0.794609 4.54598e-15 0)
(0.849602 2.81069e-15 0)
(0.899009 3.25672e-15 0)
(0.932005 6.38064e-15 0)
(0.938603 5.25433e-15 0)
(0.924611 2.067e-15 0)
(0.926112 2.625e-15 0)
(0.927313 3.75904e-15 0)
(0.927607 4.68703e-16 0)
(0.927815 -5.11187e-16 0)
(0.927922 -1.58289e-15 0)
(0.928094 -4.09344e-15 0)
(0.928151 -3.00606e-15 0)
(0.927972 -4.03945e-16 0)
(0.928098 1.66165e-17 0)
(0.928705 1.06056e-15 0)
(0.929152 7.71484e-16 0)
(0.930695 1.05618e-15 0)
(0.931425 -9.75738e-16 0)
(0.926414 2.35966e-15 0)
(0.924409 5.71784e-16 0)
(0.924776 1.40772e-16 0)
(0.925854 9.0156e-16 0)
(0.928714 2.05268e-17 0)
(0.929117 4.91482e-16 0)
(0.92313 5.31025e-16 0)
(0.878141 -3.36848e-16 0)
(0.661055 2.45915e-15 0)
(0.198532 -8.99006e-16 0)
(0.00745801 1.98207e-15 0)
(2.15996e-05 -7.53503e-16 0)
(3.51385e-09 -1.18178e-16 0)
(9.50599e-14 2.1684e-18 0)
(8.78021e-17 3.25259e-18 0)
(3.03089e-18 0 0)
(-1.09967e-17 0 0)
(-1.2605e-16 0 0)
(6.95347e-17 5.52941e-17 0)
(2.14709e-16 2.2985e-16 0)
(5.01307e-18 2.38524e-17 0)
(-4.00714e-16 0 0)
(-6.61476e-16 0 0)
(-4.77488e-16 0 0)
(-3.00776e-16 -1.6263e-17 0)
(4.82497e-17 -9.97462e-17 0)
(3.76626e-16 -9.8662e-17 0)
(4.38079e-16 0 0)
(1.63977e-16 0 0)
(-2.94446e-16 3.14417e-17 0)
(-5.68102e-16 5.85467e-17 0)
(-5.05197e-16 -1.0083e-16 0)
(-3.9821e-16 -5.74625e-17 0)
(-3.56701e-16 -1.47451e-16 0)
(2.64544e-16 1.99492e-16 0)
(2.38981e-16 0 0)
(-1.03567e-16 -1.82145e-16 0)
(-9.65899e-17 -4.70542e-16 0)
(-2.18605e-17 -1.7564e-16 0)
(7.97191e-17 0 0)
(3.60948e-16 1.34441e-16 0)
(1.47532e-16 3.33933e-16 0)
(-4.56287e-17 2.01661e-16 0)
(2.01229e-16 8.67359e-18 0)
(4.29982e-16 0 0)
(6.26909e-17 0 0)
(-3.04234e-16 0 0)
(-1.60722e-17 -7.37255e-17 0)
(2.20974e-16 0 0)
(1.72535e-17 9.32411e-17 0)
(-2.71888e-16 8.45675e-17 0)
(-3.1347e-16 0 0)
(-7.62861e-17 0 0)
(4.72381e-17 0 0)
(2.2381e-16 0 0)
(3.13672e-18 9.32411e-17 0)
(-2.20739e-16 0 0)
(-4.69684e-17 0 0)
(-2.45485e-17 0 0)
(-6.66985e-17 0 0)
(3.47003e-16 0 0)
(7.42179e-12 -1.0842e-17 0)
(2.17347e-08 -1.5504e-15 0)
(7.12526e-06 -8.97722e-16 0)
(0.000370826 -1.96301e-15 0)
(0.00460991 1.89171e-15 0)
(0.0211993 9.13129e-15 0)
(0.0531931 3.85131e-15 0)
(0.0955035 -7.43901e-15 0)
(0.143011 1.36222e-14 0)
(0.193124 -4.32201e-15 0)
(0.244728 1.13715e-14 0)
(0.297312 -6.79835e-15 0)
(0.350611 9.80493e-15 0)
(0.404483 4.51406e-15 0)
(0.458857 -5.41427e-15 0)
(0.513716 5.12443e-15 0)
(0.569067 6.23524e-15 0)
(0.624932 5.03437e-15 0)
(0.681287 -1.73682e-15 0)
(0.73801 7.01011e-15 0)
(0.794609 9.42664e-16 0)
(0.849602 3.66438e-15 0)
(0.899009 5.0439e-15 0)
(0.932005 8.24838e-15 0)
(0.938603 4.70417e-15 0)
(0.924611 2.14052e-15 0)
(0.926112 2.94947e-15 0)
(0.927313 -8.34779e-16 0)
(0.927607 -2.37622e-15 0)
(0.927815 -5.64595e-16 0)
(0.927922 -2.32476e-15 0)
(0.928094 -2.94402e-15 0)
(0.928151 -1.15638e-15 0)
(0.927972 -8.20293e-16 0)
(0.928098 -2.69045e-16 0)
(0.928705 -6.10755e-16 0)
(0.929152 5.15885e-16 0)
(0.930695 -1.87713e-15 0)
(0.931425 1.15305e-15 0)
(0.926414 -3.52898e-16 0)
(0.924409 9.79612e-16 0)
(0.924776 6.14138e-16 0)
(0.925854 -5.2827e-16 0)
(0.928714 -2.94662e-15 0)
(0.929117 -1.64203e-15 0)
(0.92313 -1.24711e-15 0)
(0.878141 3.27802e-16 0)
(0.661055 -6.30029e-16 0)
(0.198532 1.82383e-15 0)
(0.00745801 -1.61905e-15 0)
(2.15996e-05 -6.3858e-16 0)
(3.51385e-09 5.21499e-16 0)
(9.48528e-14 -2.82976e-16 0)
(1.43337e-19 -3.62122e-16 0)
(8.82893e-17 -3.01407e-16 0)
(2.34125e-16 -2.68881e-16 0)
(1.11939e-16 -1.30104e-16 0)
(1.80793e-16 1.73472e-17 0)
(1.29711e-16 3.57785e-17 0)
(-1.33653e-17 0 0)
(-3.57529e-16 0 0)
(-6.01491e-16 6.93887e-17 0)
(-5.74155e-16 1.7564e-16 0)
(-3.67043e-16 -2.92734e-17 0)
(7.12043e-17 -1.0842e-18 0)
(4.43798e-16 0 0)
(5.28886e-16 -1.36609e-16 0)
(3.31964e-16 -2.65629e-16 0)
(-4.49726e-17 -4.55363e-17 0)
(-4.68313e-16 2.27682e-16 0)
(-6.92962e-16 1.37693e-16 0)
(-5.65759e-16 2.5045e-16 0)
(-4.68374e-16 2.02745e-16 0)
(6.09319e-16 4.81384e-16 0)
(3.54089e-16 1.84314e-16 0)
(-1.32205e-16 1.47451e-16 0)
(-2.8055e-16 -1.64798e-16 0)
(-7.38139e-17 2.1684e-18 0)
(2.73997e-16 3.46943e-17 0)
(4.27743e-16 4.25006e-16 0)
(1.63849e-16 6.85213e-16 0)
(-2.26493e-17 4.98731e-16 0)
(2.32468e-16 2.4286e-16 0)
(3.47939e-16 1.36609e-16 0)
(8.26952e-17 -1.36609e-16 0)
(-2.21958e-16 -7.80623e-17 0)
(-9.33291e-18 -2.66713e-16 0)
(2.27134e-16 -6.28835e-17 0)
(-1.11969e-17 3.90311e-17 0)
(-3.03715e-16 3.31765e-16 0)
(-4.34081e-16 1.49619e-16 0)
(-1.50413e-16 0 0)
(6.452e-17 0 0)
(2.21759e-16 0 0)
(1.01161e-17 -3.03576e-17 0)
(-2.62682e-16 0 0)
(-8.17594e-17 0 0)
(-1.22581e-16 0 0)
(-1.6911e-16 0 0)
(2.96443e-16 0 0)
(7.4217e-12 -6.28835e-17 0)
(2.17347e-08 -4.67506e-15 0)
(7.12526e-06 -4.69678e-15 0)
(0.000370826 1.19082e-14 0)
(0.00460991 -8.96003e-15 0)
(0.0211993 1.96391e-14 0)
(0.0531931 2.93811e-16 0)
(0.0955035 -6.198e-15 0)
(0.143011 1.64006e-14 0)
(0.193124 -5.15415e-15 0)
(0.244728 4.77687e-15 0)
(0.297312 -2.99919e-15 0)
(0.350611 7.31137e-15 0)
(0.404483 6.98512e-16 0)
(0.458857 1.91627e-16 0)
(0.513716 1.54758e-15 0)
(0.569067 1.07008e-15 0)
(0.624932 3.01664e-15 0)
(0.681287 -4.28357e-15 0)
(0.73801 5.99539e-15 0)
(0.794609 3.11246e-16 0)
(0.849602 3.03913e-15 0)
(0.899009 6.2267e-15 0)
(0.932005 6.25054e-15 0)
(0.938603 4.02443e-15 0)
(0.924611 1.37779e-15 0)
(0.926112 3.03004e-15 0)
(0.927313 -3.59971e-15 0)
(0.927607 -4.35709e-15 0)
(0.927815 -7.39441e-16 0)
(0.927922 -2.35409e-15 0)
(0.928094 -2.11589e-15 0)
(0.928151 4.07385e-16 0)
(0.927972 -1.4961e-15 0)
(0.928098 -2.07529e-16 0)
(0.928705 -2.23828e-15 0)
(0.929152 3.06719e-16 0)
(0.930695 -2.96939e-15 0)
(0.931425 3.07066e-15 0)
(0.926414 -2.92921e-15 0)
(0.924409 5.22288e-16 0)
(0.924776 4.95023e-16 0)
(0.925854 -2.56721e-15 0)
(0.928714 -3.39051e-15 0)
(0.929117 -2.22525e-15 0)
(0.92313 -8.46144e-16 0)
(0.878141 1.61134e-15 0)
(0.661055 -3.32035e-15 0)
(0.198532 3.51673e-15 0)
(0.00745801 -5.18353e-15 0)
(2.15996e-05 -5.44257e-16 0)
(3.51385e-09 5.82214e-16 0)
(9.48081e-14 -5.8872e-16 0)
(-3.11141e-18 -6.1474e-16 0)
(1.29377e-16 -5.3451e-16 0)
(3.03286e-16 -5.04152e-16 0)
(1.88212e-16 -3.31765e-16 0)
(2.26737e-16 -1.33356e-16 0)
(1.73658e-16 0 0)
(3.44613e-17 0 0)
(-1.18825e-16 -6.72203e-17 0)
(-4.01564e-16 1.53956e-16 0)
(-6.10325e-16 3.75133e-16 0)
(-3.75289e-16 1.70219e-16 0)
(4.34558e-17 3.36101e-17 0)
(3.96822e-16 9.10727e-17 0)
(5.48669e-16 -3.19838e-16 0)
(3.72178e-16 -4.95479e-16 0)
(1.11552e-16 -2.35271e-16 0)
(-3.76819e-16 7.58939e-17 0)
(-6.74635e-16 3.45859e-16 0)
(-5.85867e-16 4.87889e-16 0)
(-6.87382e-16 4.28258e-16 0)
(8.30496e-16 2.47197e-16 0)
(4.2693e-16 1.04083e-16 0)
(-1.31301e-16 1.34441e-16 0)
(-3.23105e-16 2.21176e-16 0)
(1.7363e-17 9.97462e-17 0)
(4.10236e-16 2.64544e-16 0)
(6.12208e-16 2.4286e-16 0)
(2.39987e-16 3.66459e-16 0)
(-2.07217e-16 3.20923e-16 0)
(2.84895e-16 2.81892e-16 0)
(-1.00615e-17 -1.30104e-17 0)
(-1.38369e-16 -2.53702e-16 0)
(-2.06894e-16 -1.30104e-17 0)
(-3.05265e-17 9.75778e-17 0)
(2.44957e-16 1.30104e-17 0)
(1.83435e-16 -1.58293e-16 0)
(-1.48463e-16 1.2143e-16 0)
(-5.1397e-16 2.34187e-16 0)
(-2.20013e-16 8.89043e-17 0)
(6.44442e-17 1.92987e-16 0)
(-1.64228e-16 4.11995e-17 0)
(-9.59805e-17 -1.99492e-16 0)
(1.25494e-16 3.03576e-17 0)
(-1.00931e-17 2.60208e-16 0)
(-2.98313e-16 1.30104e-16 0)
(-3.86899e-16 2.38524e-17 0)
(2.696e-16 0 0)
(7.42159e-12 6.07151e-17 0)
(2.17346e-08 -3.06828e-15 0)
(7.12526e-06 -6.57462e-15 0)
(0.000370826 1.67019e-14 0)
(0.00460991 -1.35554e-14 0)
(0.0211993 1.8735e-14 0)
(0.0531931 -6.80643e-16 0)
(0.0955035 -6.52619e-15 0)
(0.143011 1.53147e-14 0)
(0.193124 -5.30009e-15 0)
(0.244728 -1.3985e-15 0)
(0.297312 -2.34939e-15 0)
(0.350611 5.7334e-15 0)
(0.404483 -3.27621e-15 0)
(0.458857 6.18728e-15 0)
(0.513716 -1.12396e-15 0)
(0.569067 -1.70134e-15 0)
(0.624932 1.28134e-15 0)
(0.681287 -3.56064e-15 0)
(0.73801 3.25111e-15 0)
(0.794609 3.99377e-16 0)
(0.849602 2.88959e-15 0)
(0.899009 -4.72131e-16 0)
(0.932005 8.08088e-15 0)
(0.938603 5.35658e-15 0)
(0.924611 2.04704e-15 0)
(0.926112 1.00325e-15 0)
(0.927313 -2.77159e-15 0)
(0.927607 -3.63975e-15 0)
(0.927815 -4.90523e-16 0)
(0.927922 -3.27035e-15 0)
(0.928094 -1.33399e-15 0)
(0.928151 -2.31861e-16 0)
(0.927972 -5.18256e-16 0)
(0.928098 -3.78643e-16 0)
(0.928705 -3.33111e-15 0)
(0.929152 -9.07378e-17 0)
(0.930695 -3.41454e-15 0)
(0.931425 2.97503e-15 0)
(0.926414 -1.97808e-15 0)
(0.924409 -2.28043e-15 0)
(0.924776 -3.27437e-16 0)
(0.925854 -2.83597e-15 0)
(0.928714 -3.25247e-15 0)
(0.929117 -2.97656e-15 0)
(0.92313 -1.86501e-15 0)
(0.878141 6.45493e-16 0)
(0.661055 -3.0155e-15 0)
(0.198532 3.87264e-15 0)
(0.00745801 -3.53863e-15 0)
(2.15996e-05 7.27483e-16 0)
(3.51385e-09 -2.11419e-16 0)
(9.50742e-14 -3.88143e-16 0)
(4.13611e-18 -3.24175e-16 0)
(1.69974e-16 -2.94902e-16 0)
(3.61724e-16 -2.82976e-16 0)
(2.60772e-16 -2.80807e-16 0)
(2.88405e-16 -1.17093e-16 0)
(2.07034e-16 0 0)
(5.81971e-17 -9.43252e-17 0)
(6.91561e-17 -2.39608e-16 0)
(-1.36822e-16 -8.67359e-18 0)
(-3.71059e-16 2.32018e-16 0)
(-2.83625e-16 3.5887e-16 0)
(-8.2851e-17 1.60461e-16 0)
(1.9587e-16 5.42099e-17 0)
(2.92406e-16 -1.51788e-16 0)
(4.80847e-16 -2.80807e-16 0)
(2.35023e-16 -1.34441e-16 0)
(-2.14525e-16 -1.05167e-16 0)
(-5.13485e-16 1.82145e-16 0)
(-6.55742e-16 2.89481e-16 0)
(-8.39169e-16 2.91649e-16 0)
(6.11488e-16 -2.1684e-18 0)
(2.977e-16 2.55871e-16 0)
(-6.19238e-17 3.12249e-16 0)
(-3.17201e-17 5.07405e-16 0)
(2.01274e-16 3.64291e-16 0)
(4.32874e-16 5.8113e-16 0)
(4.27667e-16 3.46943e-16 0)
(1.43819e-16 8.23991e-17 0)
(-1.36567e-18 1.97324e-16 0)
(-7.99085e-17 -8.45675e-17 0)
(-3.25903e-16 -3.31765e-16 0)
(-7.56818e-17 -8.23991e-17 0)
(-2.10466e-16 2.23345e-16 0)
(1.25808e-17 4.68374e-16 0)
(2.31547e-16 2.51534e-16 0)
(8.93362e-17 2.38524e-17 0)
(-6.25908e-17 1.30104e-16 0)
(-3.35714e-16 4.03322e-16 0)
(-9.57669e-17 2.9707e-16 0)
(7.48079e-17 4.81384e-16 0)
(-1.62951e-16 2.49366e-16 0)
(-1.09331e-16 6.28835e-17 0)
(1.48012e-16 2.68881e-16 0)
(1.28194e-16 5.70288e-16 0)
(-2.20219e-16 3.62122e-16 0)
(-5.93683e-16 2.60208e-16 0)
(-1.59014e-16 2.81892e-17 0)
(7.42128e-12 -8.13149e-16 0)
(2.17346e-08 2.64761e-15 0)
(7.12526e-06 -5.09143e-15 0)
(0.000370826 1.36587e-14 0)
(0.00460991 -1.22145e-14 0)
(0.0211993 1.16404e-14 0)
(0.0531931 -1.36129e-17 0)
(0.0955035 -6.04743e-15 0)
(0.143011 1.06723e-14 0)
(0.193124 -3.93026e-15 0)
(0.244728 -3.39846e-15 0)
(0.297312 1.12277e-16 0)
(0.350611 4.69123e-15 0)
(0.404483 -6.29897e-15 0)
(0.458857 1.09698e-14 0)
(0.513716 -2.83893e-15 0)
(0.569067 -6.09316e-15 0)
(0.624932 1.04251e-17 0)
(0.681287 -2.77672e-15 0)
(0.73801 5.459e-16 0)
(0.794609 -3.03437e-15 0)
(0.849602 1.56254e-15 0)
(0.899009 -2.5374e-15 0)
(0.932005 8.26724e-15 0)
(0.938603 2.30064e-15 0)
(0.924611 -3.21949e-16 0)
(0.926112 -1.71722e-15 0)
(0.927313 -2.75382e-15 0)
(0.927607 -3.57719e-15 0)
(0.927815 -2.91707e-15 0)
(0.927922 -3.40393e-15 0)
(0.928094 4.5579e-17 0)
(0.928151 -1.2951e-15 0)
(0.927972 4.55905e-17 0)
(0.928098 -8.52036e-16 0)
(0.928705 -1.44008e-15 0)
(0.929152 -2.59859e-17 0)
(0.930695 -3.93841e-15 0)
(0.931425 -8.50222e-16 0)
(0.926414 1.60213e-15 0)
(0.924409 -2.75735e-15 0)
(0.924776 -1.32986e-15 0)
(0.925854 -6.5699e-16 0)
(0.928714 -1.43277e-15 0)
(0.929117 -6.98017e-16 0)
(0.92313 -2.05521e-15 0)
(0.878141 -1.13507e-15 0)
(0.661055 -1.42392e-15 0)
(0.198532 2.59559e-15 0)
(0.00745801 1.58134e-15 0)
(2.15996e-05 2.39603e-16 0)
(3.51385e-09 -1.27719e-15 0)
(9.52364e-14 2.73218e-16 0)
(1.51883e-16 2.04913e-16 0)
(-1.66326e-17 4.11995e-17 0)
(1.18897e-16 6.28835e-17 0)
(2.82647e-16 -3.79469e-17 0)
(3.09785e-16 -1.0842e-17 0)
(1.13686e-16 -2.49366e-17 0)
(-5.28225e-17 -1.89735e-16 0)
(7.50163e-17 -6.07151e-17 0)
(8.55215e-17 0 0)
(-8.68931e-17 -1.95156e-17 0)
(-2.28904e-16 1.61546e-16 0)
(-1.30697e-16 5.85467e-17 0)
(4.8169e-17 2.0925e-16 0)
(2.06831e-16 2.52618e-16 0)
(3.35791e-16 9.21569e-17 0)
(9.99387e-17 -1.47451e-16 0)
(-2.74832e-16 -2.51534e-16 0)
(-5.17659e-16 -6.50519e-18 0)
(-5.95295e-16 5.74625e-17 0)
(-7.52434e-16 1.22514e-16 0)
(8.15317e-16 -2.23345e-16 0)
(4.20546e-16 -9.97462e-17 0)
(-5.38331e-17 -3.25259e-17 0)
(-1.04779e-16 2.25513e-16 0)
(2.45836e-16 1.82145e-16 0)
(5.89154e-16 2.9707e-16 0)
(2.43941e-16 -3.90311e-17 0)
(-7.69541e-18 -3.96817e-16 0)
(-2.32196e-16 -2.4286e-16 0)
(-4.45555e-16 -4.53195e-16 0)
(-1.08765e-16 -1.12757e-16 0)
(1.83377e-16 1.82145e-16 0)
(-2.73145e-17 4.33679e-17 0)
(-2.10307e-16 2.45029e-16 0)
(-3.68956e-17 -4.33679e-18 0)
(2.71088e-16 -7.37255e-17 0)
(1.67987e-16 -1.6263e-16 0)
(-2.53673e-17 2.38524e-17 0)
(1.01848e-17 4.33679e-18 0)
(6.55644e-17 5.63783e-17 0)
(-1.16908e-16 -1.19262e-16 0)
(-8.58686e-17 4.33679e-18 0)
(1.49496e-16 8.89043e-17 0)
(5.37858e-17 2.05998e-16 0)