/*--------------------------------*- C++ -*----------------------------------*\
| =========                 |                                                 |
| \\      /  F ield         | OpenFOAM: The Open Source CFD Toolbox           |
|  \\    /   O peration     | Version:  4.1                                   |
|   \\  /    A nd           | Web:      www.OpenFOAM.org                      |
|    \\/     M anipulation  |                                                 |
\*---------------------------------------------------------------------------*/
FoamFile
{
    version     2.0;
    format      ascii;
    class       volVectorField;
    location    "0.36";
    object      U;
}
// * * * * * * * * * * * * * * * * * * * * * * * * * * * * * * * * * * * * * //

dimensions      [0 1 -1 0 0 0 0];

internalField   nonuniform List<vector> 
10000
(
(0 0 0)
(1.74281e-16 0 0)
(3.05615e-16 0 0)
(1.00795e-16 1.56125e-16 0)
(-1.22573e-16 0 0)
(-2.96714e-16 0 0)
(-2.6865e-16 0 0)
(-4.48013e-17 0 0)
(-4.77675e-21 0 0)
(2.43657e-16 1.49619e-16 0)
(5.08989e-16 0 0)
(1.7356e-16 -1.56125e-16 0)
(-2.06795e-16 0 0)
(5.3324e-17 0 0)
(1.63265e-16 0 0)
(-4.92255e-17 1.32272e-16 0)
(-2.60439e-16 0 0)
(-1.4996e-16 0 0)
(-4.61678e-17 0 0)
(-1.99059e-16 0 0)
(-1.34739e-17 1.30104e-17 0)
(2.06058e-17 2.19008e-16 0)
(1.505e-12 -2.12503e-16 0)
(6.04664e-09 7.00392e-16 0)
(2.63251e-06 2.22478e-15 0)
(0.000174206 -2.27715e-15 0)
(0.00260844 -1.62837e-14 0)
(0.0136202 1.1128e-14 0)
(0.0368773 -7.27265e-15 0)
(0.0690656 8.80805e-16 0)
(0.105881 1.69107e-14 0)
(0.144974 1.44436e-14 0)
(0.185327 1.32965e-14 0)
(0.226484 9.09477e-15 0)
(0.268206 4.48815e-15 0)
(0.310355 2.77425e-14 0)
(0.352842 -2.33529e-14 0)
(0.395616 1.22119e-14 0)
(0.438647 -8.13252e-15 0)
(0.481921 8.7502e-15 0)
(0.525438 6.60748e-15 0)
(0.569204 6.21057e-14 0)
(0.613224 6.30293e-14 0)
(0.657499 6.16767e-14 0)
(0.702001 1.57099e-14 0)
(0.74666 3.68313e-14 0)
(0.791276 -1.88293e-14 0)
(0.835376 2.15289e-14 0)
(0.877419 8.43029e-14 0)
(0.913199 3.7362e-14 0)
(0.933442 -2.60036e-14 0)
(0.935215 -1.49977e-14 0)
(0.925266 -1.33556e-15 0)
(0.926579 6.46946e-15 0)
(0.927548 1.01115e-14 0)
(0.927751 1.34837e-14 0)
(0.927957 1.32944e-14 0)
(0.928101 9.06114e-15 0)
(0.92833 7.92719e-15 0)
(0.928454 7.72138e-15 0)
(0.928247 6.38177e-15 0)
(0.928083 7.35598e-15 0)
(0.928084 5.53425e-15 0)
(0.928145 7.07389e-15 0)
(0.928265 5.00497e-15 0)
(0.928536 5.04915e-15 0)
(0.928974 -1.7363e-15 0)
(0.929677 -1.15632e-15 0)
(0.92821 -8.06695e-15 0)
(0.924157 -1.48191e-14 0)
(0.928402 -5.63738e-15 0)
(0.930338 -7.98287e-15 0)
(0.929777 -9.39454e-15 0)
(0.928287 -6.10202e-15 0)
(0.926518 -3.53265e-15 0)
(0.92559 -2.08437e-15 0)
(0.925344 -2.10135e-15 0)
(0.92554 -2.89579e-15 0)
(0.924553 -4.65106e-15 0)
(0.917967 -4.7507e-15 0)
(0.875201 -4.75703e-15 0)
(0.671035 -3.99385e-15 0)
(0.216081 -8.68971e-16 0)
(0.00920482 1.33373e-16 0)
(3.10664e-05 6.66763e-16 0)
(6.06578e-09 1.0842e-18 0)
(1.6848e-13 0 0)
(-4.92141e-17 0 0)
(-1.39777e-16 0 0)
(-2.18242e-16 0 0)
(-2.90862e-16 -6.50519e-18 0)
(-4.42391e-16 0 0)
(-2.53946e-16 1.18178e-16 0)
(3.81152e-17 0 0)
(2.52677e-16 0 0)
(1.19684e-17 0 0)
(-2.46909e-16 1.86482e-16 0)
(-3.26216e-16 1.56125e-16 0)
(-2.58962e-16 8.45675e-17 0)
(-1.2902e-16 1.6263e-16 0)
(0 0 0)
(2.14705e-16 0 0)
(3.09614e-16 1.38777e-16 0)
(1.0316e-16 3.40438e-16 0)
(-1.20219e-16 1.25767e-16 0)
(-3.21777e-16 2.60208e-16 0)
(-3.14005e-16 4.98731e-17 0)
(-5.35792e-17 0 0)
(-1.45128e-19 0 0)
(2.45738e-16 0 0)
(5.48229e-16 0 0)
(1.85117e-16 0 0)
(-1.78927e-16 0 0)
(7.18455e-17 0 0)
(1.676e-16 1.30104e-16 0)
(-5.02135e-17 3.16586e-16 0)
(-2.63419e-16 1.27935e-16 0)
(-1.61102e-16 0 0)
(-6.6393e-17 0 0)
(-2.18918e-16 0 0)
(1.72601e-19 0 0)
(2.28091e-16 2.60208e-17 0)
(1.5044e-12 8.67359e-18 0)
(6.04664e-09 2.73001e-15 0)
(2.63251e-06 7.33137e-15 0)
(0.000174206 2.41161e-15 0)
(0.00260844 -1.51102e-14 0)
(0.0136202 2.35853e-14 0)
(0.0368773 -1.49413e-14 0)
(0.0690656 -4.42012e-15 0)
(0.105881 2.49751e-14 0)
(0.144974 -5.53387e-15 0)
(0.185327 1.38368e-14 0)
(0.226484 1.06409e-14 0)
(0.268206 6.85393e-15 0)
(0.310355 1.54634e-14 0)
(0.352842 -8.46811e-15 0)
(0.395616 2.63244e-14 0)
(0.438647 -5.14698e-15 0)
(0.481921 8.70542e-15 0)
(0.525438 2.18321e-14 0)
(0.569204 3.11985e-14 0)
(0.613224 2.11666e-14 0)
(0.657499 2.99178e-14 0)
(0.702001 2.49527e-14 0)
(0.74666 3.63193e-14 0)
(0.791276 4.76041e-15 0)
(0.835376 2.64018e-14 0)
(0.877419 2.50526e-14 0)
(0.913199 4.87428e-14 0)
(0.933442 -4.34257e-15 0)
(0.935215 -5.52608e-15 0)
(0.925266 1.06807e-15 0)
(0.926579 8.33649e-15 0)
(0.927548 8.07518e-15 0)
(0.927751 1.06947e-14 0)
(0.927957 8.08752e-15 0)
(0.928101 4.02237e-15 0)
(0.92833 5.65165e-15 0)
(0.928454 7.02597e-15 0)
(0.928247 9.98033e-15 0)
(0.928083 1.17878e-14 0)
(0.928084 9.96719e-15 0)
(0.928145 7.98175e-15 0)
(0.928265 6.93048e-15 0)
(0.928536 3.91593e-15 0)
(0.928974 1.58244e-15 0)
(0.929677 6.97668e-15 0)
(0.92821 -1.01888e-14 0)
(0.924157 -4.72784e-16 0)
(0.928402 -1.01473e-14 0)
(0.930338 -4.28635e-15 0)
(0.929777 -4.42914e-15 0)
(0.928287 -2.52924e-15 0)
(0.926518 4.25398e-16 0)
(0.92559 2.83308e-15 0)
(0.925344 3.52601e-15 0)
(0.92554 1.78892e-15 0)
(0.924553 2.66953e-15 0)
(0.917967 -6.65737e-16 0)
(0.875201 -2.12169e-15 0)
(0.671035 -4.00958e-15 0)
(0.216081 6.72634e-16 0)
(0.00920482 1.47356e-15 0)
(3.10664e-05 2.92075e-15 0)
(6.06578e-09 -1.36609e-16 0)
(1.68491e-13 -3.90311e-17 0)
(-5.68371e-17 3.68627e-17 0)
(-1.91341e-16 0 0)
(-2.6934e-16 4.66205e-17 0)
(-1.93359e-16 4.33679e-17 0)
(-3.08355e-16 2.00577e-16 0)
(-1.88349e-16 3.20923e-16 0)
(4.35118e-18 1.2902e-16 0)
(2.15151e-16 4.33679e-18 0)
(-1.88776e-17 6.17993e-17 0)
(-2.7438e-16 3.15502e-16 0)
(-3.82199e-16 3.59954e-16 0)
(-3.60306e-16 2.74302e-16 0)
(-3.33933e-16 3.66459e-16 0)
(0 0 0)
(2.58644e-16 0 0)
(5.24048e-16 0 0)
(1.15507e-16 1.06251e-16 0)
(-3.51309e-16 3.44775e-16 0)
(-3.24437e-16 5.87635e-16 0)
(-3.42944e-16 2.66713e-16 0)
(-4.28557e-17 0 0)
(-2.12921e-18 0 0)
(2.52102e-16 0 0)
(5.78118e-16 0 0)
(2.13484e-16 2.1684e-18 0)
(-1.48272e-16 7.37255e-17 0)
(8.29261e-17 2.99239e-16 0)
(3.29349e-16 1.73472e-16 0)
(-3.57315e-17 7.80623e-17 0)
(-4.07501e-16 0 0)
(-1.66638e-16 0 0)
(-9.02095e-17 1.01915e-16 0)
(-2.11793e-16 0 0)
(-1.55162e-18 0 0)
(2.5678e-16 3.25259e-17 0)
(1.5049e-12 2.92734e-16 0)
(6.04665e-09 3.61472e-15 0)
(2.63251e-06 1.48362e-14 0)
(0.000174206 6.72519e-15 0)
(0.00260844 -1.08812e-14 0)
(0.0136202 2.99576e-14 0)
(0.0368773 -1.16613e-14 0)
(0.0690656 -1.49185e-14 0)
(0.105881 3.27557e-14 0)
(0.144974 -9.51242e-15 0)
(0.185327 1.23518e-14 0)
(0.226484 9.77358e-15 0)
(0.268206 7.31205e-15 0)
(0.310355 1.35255e-14 0)
(0.352842 -4.04823e-15 0)
(0.395616 2.89455e-14 0)
(0.438647 -2.96641e-15 0)
(0.481921 4.85275e-15 0)
(0.525438 3.03423e-14 0)
(0.569204 1.99388e-14 0)
(0.613224 8.54311e-15 0)
(0.657499 1.64048e-14 0)
(0.702001 2.56023e-14 0)
(0.74666 3.18194e-14 0)
(0.791276 9.81766e-15 0)
(0.835376 2.50982e-14 0)
(0.877419 1.00999e-14 0)
(0.913199 4.03122e-14 0)
(0.933442 -5.32003e-15 0)
(0.935215 -2.85534e-15 0)
(0.925266 2.94527e-15 0)
(0.926579 1.00399e-14 0)
(0.927548 7.74571e-15 0)
(0.927751 9.729e-15 0)
(0.927957 4.33061e-15 0)
(0.928101 2.3502e-15 0)
(0.92833 2.97154e-15 0)
(0.928454 4.14957e-15 0)
(0.928247 9.70812e-15 0)
(0.928083 1.08803e-14 0)
(0.928084 1.00088e-14 0)
(0.928145 8.68187e-15 0)
(0.928265 6.89027e-15 0)
(0.928536 5.29933e-15 0)
(0.928974 6.44259e-16 0)
(0.929677 8.30198e-15 0)
(0.92821 -1.02164e-14 0)
(0.924157 9.21676e-15 0)
(0.928402 -7.56362e-15 0)
(0.930338 -8.7194e-17 0)
(0.929777 -6.44024e-16 0)
(0.928287 5.77232e-16 0)
(0.926518 4.76312e-15 0)
(0.92559 6.01073e-15 0)
(0.925344 5.78076e-15 0)
(0.92554 4.08209e-15 0)
(0.924553 2.97639e-15 0)
(0.917967 1.66588e-15 0)
(0.875201 1.14122e-15 0)
(0.671035 2.62397e-16 0)
(0.216081 2.97686e-15 0)
(0.00920482 3.12136e-15 0)
(3.10664e-05 1.30425e-15 0)
(6.06578e-09 -1.02348e-15 0)
(1.68723e-13 -5.20415e-17 0)
(-6.7407e-17 2.22261e-16 0)
(-2.35458e-16 8.45675e-17 0)
(-3.16836e-16 1.8865e-16 0)
(-1.73764e-16 1.8865e-16 0)
(-1.18344e-16 3.93564e-16 0)
(-1.54301e-16 5.28005e-16 0)
(-6.69182e-17 3.85975e-16 0)
(1.08759e-16 2.6346e-16 0)
(3.56993e-19 1.52872e-16 0)
(-2.22709e-16 3.56701e-16 0)
(-4.31185e-16 5.65951e-16 0)
(-4.66862e-16 4.7271e-16 0)
(-5.43183e-16 5.75709e-16 0)
(-2.1684e-18 -2.1684e-18 0)
(2.69552e-16 -2.1684e-18 0)
(5.72584e-16 -2.1684e-18 0)
(1.69779e-16 3.90311e-17 0)
(-3.09838e-16 2.86228e-16 0)
(-6.92266e-16 2.14671e-16 0)
(-3.73817e-16 -2.1684e-18 0)
(-2.24859e-17 -2.1684e-18 0)
(-1.23743e-17 0 0)
(1.59776e-16 0 0)
(4.08857e-16 -4.33679e-18 0)
(2.3362e-16 -4.55363e-17 0)
(8.52197e-17 2.99239e-16 0)
(1.98171e-16 6.31003e-16 0)
(2.8374e-16 3.57785e-16 0)
(-5.24819e-17 0 0)
(-3.89687e-16 -2.1684e-18 0)
(-1.35442e-16 1.17093e-16 0)
(-8.83946e-17 3.55617e-16 0)
(-2.09814e-16 1.73472e-16 0)
(-1.55008e-17 1.95156e-17 0)
(1.44738e-16 2.2985e-16 0)
(1.50508e-12 5.50773e-16 0)
(6.04665e-09 6.87382e-16 0)
(2.63251e-06 1.55713e-14 0)
(0.000174206 1.18412e-14 0)
(0.00260844 -1.92327e-14 0)
(0.0136202 3.83634e-14 0)
(0.0368773 -6.07676e-15 0)
(0.0690656 -2.02148e-14 0)
(0.105881 3.71825e-14 0)
(0.144974 -8.43339e-15 0)
(0.185327 9.45424e-15 0)
(0.226484 9.97789e-15 0)
(0.268206 6.35343e-15 0)
(0.310355 1.29179e-14 0)
(0.352842 -4.83281e-15 0)
(0.395616 3.15697e-14 0)
(0.438647 -4.44722e-16 0)
(0.481921 1.50259e-15 0)
(0.525438 3.19998e-14 0)
(0.569204 1.18388e-14 0)
(0.613224 3.65303e-15 0)
(0.657499 1.12193e-14 0)
(0.702001 2.7704e-14 0)
(0.74666 2.82223e-14 0)
(0.791276 1.11795e-14 0)
(0.835376 2.18933e-14 0)
(0.877419 5.2678e-15 0)
(0.913199 2.48002e-14 0)
(0.933442 -2.28691e-15 0)
(0.935215 1.89715e-15 0)
(0.925266 7.95434e-15 0)
(0.926579 9.14101e-15 0)
(0.927548 8.90458e-15 0)
(0.927751 8.85836e-15 0)
(0.927957 3.92409e-15 0)
(0.928101 3.15054e-15 0)
(0.92833 1.09391e-15 0)
(0.928454 2.74031e-15 0)
(0.928247 6.71288e-15 0)
(0.928083 8.65953e-15 0)
(0.928084 1.11633e-14 0)
(0.928145 7.73095e-15 0)
(0.928265 3.50545e-15 0)
(0.928536 5.72727e-15 0)
(0.928974 2.52575e-15 0)
(0.929677 9.61814e-15 0)
(0.92821 -6.55544e-15 0)
(0.924157 1.03685e-14 0)
(0.928402 -6.61228e-15 0)
(0.930338 3.88731e-15 0)
(0.929777 1.72219e-15 0)
(0.928287 2.61603e-15 0)
(0.926518 6.74317e-15 0)
(0.92559 5.15316e-15 0)
(0.925344 7.25108e-15 0)
(0.92554 5.7675e-15 0)
(0.924553 3.76429e-15 0)
(0.917967 2.77407e-15 0)
(0.875201 3.43218e-15 0)
(0.671035 2.14448e-15 0)
(0.216081 3.48406e-15 0)
(0.00920482 4.05712e-15 0)
(3.10664e-05 1.65227e-15 0)
(6.06578e-09 -6.29919e-16 0)
(1.69115e-13 3.03576e-16 0)
(-3.12001e-16 2.95986e-16 0)
(-3.1262e-16 9.8662e-17 0)
(-2.11995e-16 2.02745e-16 0)
(-1.07731e-16 1.0083e-16 0)
(-3.31177e-18 2.0925e-16 0)
(-1.75654e-16 3.87059e-16 0)
(-2.0268e-16 5.91972e-16 0)
(-1.00544e-16 5.49689e-16 0)
(-1.71613e-16 3.87059e-16 0)
(-1.15986e-16 2.51534e-16 0)
(-3.20924e-16 3.36101e-16 0)
(-6.03427e-16 2.37439e-16 0)
(-7.93633e-16 3.29596e-16 0)
(-2.1684e-18 2.1684e-18 0)
(2.51266e-16 2.1684e-18 0)
(5.75696e-16 2.1684e-18 0)
(1.45979e-16 1.64798e-16 0)
(-6.3974e-16 -1.64798e-16 0)
(-6.78719e-16 -5.44268e-16 0)
(-3.32488e-16 -2.40692e-16 0)
(6.0625e-18 2.1684e-18 0)
(-3.24326e-17 0 0)
(1.73996e-16 -2.1684e-18 0)
(4.30125e-16 9.10727e-17 0)
(2.47975e-16 2.75386e-16 0)
(2.77064e-16 1.17093e-16 0)
(1.54638e-16 2.60208e-16 0)
(2.9463e-16 7.80623e-17 0)
(-5.37757e-17 9.32411e-17 0)
(-4.01424e-16 2.1684e-18 0)
(-1.65299e-16 2.1684e-18 0)
(-1.0025e-16 -1.30104e-17 0)
(-2.84394e-16 0 0)
(-2.01663e-17 4.11995e-17 0)
(4.16534e-16 4.16332e-16 0)
(1.50527e-12 2.40692e-16 0)
(6.04665e-09 -3.11599e-15 0)
(2.63251e-06 9.32846e-15 0)
(0.000174206 1.89286e-14 0)
(0.00260844 -2.1056e-14 0)
(0.0136202 3.16489e-14 0)
(0.0368773 4.59672e-15 0)
(0.0690656 -2.56054e-14 0)
(0.105881 3.20923e-14 0)
(0.144974 -8.68135e-15 0)
(0.185327 6.70798e-15 0)
(0.226484 7.37335e-15 0)
(0.268206 -3.51449e-16 0)
(0.310355 1.22634e-14 0)
(0.352842 -7.67469e-15 0)
(0.395616 3.12494e-14 0)
(0.438647 1.12695e-15 0)
(0.481921 -7.26419e-16 0)
(0.525438 3.18824e-14 0)
(0.569204 6.33754e-15 0)
(0.613224 3.56307e-15 0)
(0.657499 7.14105e-15 0)
(0.702001 2.65394e-14 0)
(0.74666 2.53225e-14 0)
(0.791276 7.28737e-15 0)
(0.835376 1.76809e-14 0)
(0.877419 5.23512e-15 0)
(0.913199 1.69163e-14 0)
(0.933442 1.08077e-15 0)
(0.935215 1.71064e-15 0)
(0.925266 7.66781e-15 0)
(0.926579 4.30694e-15 0)
(0.927548 7.74571e-15 0)
(0.927751 7.96801e-15 0)
(0.927957 2.77541e-15 0)
(0.928101 4.10593e-15 0)
(0.92833 -1.96662e-15 0)
(0.928454 1.65856e-15 0)
(0.928247 5.65588e-15 0)
(0.928083 6.61329e-15 0)
(0.928084 1.12101e-14 0)
(0.928145 3.21696e-15 0)
(0.928265 3.40628e-15 0)
(0.928536 3.93657e-15 0)
(0.928974 1.32087e-15 0)
(0.929677 1.09038e-14 0)
(0.92821 -5.32766e-15 0)
(0.924157 9.85739e-15 0)
(0.928402 -7.67934e-15 0)
(0.930338 5.10649e-15 0)
(0.929777 -1.88332e-16 0)
(0.928287 4.4376e-15 0)
(0.926518 6.63169e-15 0)
(0.92559 2.18862e-15 0)
(0.925344 7.23415e-15 0)
(0.92554 1.36309e-15 0)
(0.924553 2.7223e-15 0)
(0.917967 2.33728e-15 0)
(0.875201 4.53348e-15 0)
(0.671035 3.77298e-15 0)
(0.216081 4.26941e-15 0)
(0.00920482 6.49225e-15 0)
(3.10664e-05 1.7596e-15 0)
(6.06578e-09 1.14925e-15 0)
(1.68681e-13 4.56447e-16 0)
(-4.85909e-16 2.48281e-16 0)
(-4.71043e-16 2.54787e-16 0)
(-3.76546e-16 2.92734e-17 0)
(-4.69869e-17 -1.36609e-16 0)
(1.91801e-16 -1.18178e-16 0)
(9.20824e-17 4.22837e-17 0)
(4.67546e-17 4.29343e-16 0)
(2.99068e-17 6.85213e-16 0)
(-1.91312e-16 6.02814e-16 0)
(-3.39924e-16 2.08166e-16 0)
(-5.43495e-16 -1.20346e-16 0)
(-7.67437e-16 -7.80623e-17 0)
(-9.49758e-16 -1.94071e-16 0)
(0 0 0)
(1.95587e-16 0 0)
(2.75216e-16 -1.79977e-16 0)
(-1.51348e-16 -4.31511e-16 0)
(-7.02577e-16 -6.04983e-16 0)
(-4.02361e-16 -2.64544e-16 0)
(-7.28102e-17 -2.1684e-17 0)
(6.35252e-17 0 0)
(-4.47917e-17 0 0)
(1.88548e-16 6.93887e-17 0)
(4.63239e-16 3.49112e-16 0)
(2.47971e-16 5.18247e-16 0)
(-3.76976e-17 2.2985e-16 0)
(7.82699e-17 -9.97462e-17 0)
(3.05955e-16 -6.50519e-17 0)
(-4.94017e-17 -9.54094e-17 0)
(-4.04374e-16 0 0)
(-2.25369e-16 -1.01915e-16 0)
(-4.79019e-17 -3.79469e-16 0)
(-7.38082e-17 -1.36609e-16 0)
(1.72033e-16 0 0)
(4.70136e-16 1.25767e-16 0)
(1.50441e-12 -4.44521e-16 0)
(6.04664e-09 -2.75603e-15 0)
(2.63251e-06 8.11633e-15 0)
(0.000174206 1.58924e-14 0)
(0.00260844 -1.81048e-14 0)
(0.0136202 1.80619e-14 0)
(0.0368773 7.84094e-15 0)
(0.0690656 -2.21041e-14 0)
(0.105881 2.54628e-14 0)
(0.144974 -9.58607e-15 0)
(0.185327 5.09456e-15 0)
(0.226484 4.85054e-15 0)
(0.268206 -5.7148e-15 0)
(0.310355 1.19681e-14 0)
(0.352842 -7.79414e-15 0)
(0.395616 2.76381e-14 0)
(0.438647 2.61414e-16 0)
(0.481921 -3.10304e-15 0)
(0.525438 2.82929e-14 0)
(0.569204 4.0302e-15 0)
(0.613224 2.33071e-15 0)
(0.657499 3.23385e-15 0)
(0.702001 2.22403e-14 0)
(0.74666 2.08183e-14 0)
(0.791276 7.43967e-15 0)
(0.835376 1.34139e-14 0)
(0.877419 9.75504e-15 0)
(0.913199 1.48513e-14 0)
(0.933442 2.27028e-15 0)
(0.935215 2.47943e-15 0)
(0.925266 4.502e-15 0)
(0.926579 5.08699e-15 0)
(0.927548 9.58609e-15 0)
(0.927751 7.11995e-15 0)
(0.927957 9.4908e-16 0)
(0.928101 3.09939e-15 0)
(0.92833 -4.31112e-15 0)
(0.928454 -5.24022e-16 0)
(0.928247 2.49699e-15 0)
(0.928083 4.20401e-15 0)
(0.928084 7.95776e-15 0)
(0.928145 1.20303e-15 0)
(0.928265 3.65166e-15 0)
(0.928536 2.1589e-15 0)
(0.928974 4.63566e-16 0)
(0.929677 8.0999e-15 0)
(0.92821 -4.18558e-15 0)
(0.924157 9.72433e-15 0)
(0.928402 -4.11155e-15 0)
(0.930338 3.39338e-15 0)
(0.929777 -1.97159e-15 0)
(0.928287 1.35732e-15 0)
(0.926518 3.98734e-15 0)
(0.92559 1.63812e-15 0)
(0.925344 4.69161e-15 0)
(0.92554 2.30597e-17 0)
(0.924553 4.74891e-16 0)
(0.917967 3.54991e-16 0)
(0.875201 2.76629e-15 0)
(0.671035 8.79691e-16 0)
(0.216081 2.62873e-15 0)
(0.00920482 8.11316e-15 0)
(3.10664e-05 -2.21387e-15 0)
(6.06578e-09 1.47451e-15 0)
(1.68847e-13 1.52872e-16 0)
(-5.13757e-16 6.83045e-17 0)
(-6.7942e-16 8.89043e-17 0)
(-5.12509e-16 -8.78201e-17 0)
(-1.90434e-16 4.33679e-18 0)
(5.95556e-17 -2.56955e-16 0)
(3.37793e-16 -1.94071e-16 0)
(3.58723e-16 1.20346e-16 0)
(1.27198e-16 4.28258e-16 0)
(-2.8817e-16 3.75133e-16 0)
(-5.72177e-16 -2.7105e-17 0)
(-7.23107e-16 -2.92734e-16 0)
(-6.20697e-16 -2.40692e-16 0)
(-7.22076e-16 -3.41522e-16 0)
(1.95156e-17 0 0)
(2.25434e-16 -1.53956e-16 0)
(-4.21592e-17 -4.94394e-16 0)
(-1.97981e-16 -8.71695e-16 0)
(-3.68836e-16 -6.78708e-16 0)
(-3.78315e-17 -3.3827e-16 0)
(1.95768e-16 0 0)
(1.5113e-16 1.0842e-17 0)
(-3.8307e-17 0 0)
(1.96118e-16 0 0)
(4.24035e-16 9.97462e-17 0)
(2.93259e-17 2.47197e-16 0)
(-2.88794e-16 0 0)
(-3.0605e-17 -5.20415e-17 0)
(2.24391e-16 0 0)
(-7.71716e-18 -9.32411e-17 0)
(-2.72772e-16 0 0)
(-2.67295e-16 0 0)
(-7.13981e-17 -1.19262e-16 0)
(2.03063e-17 0 0)
(1.84892e-16 0 0)
(1.94071e-16 -1.01915e-16 0)
(1.50394e-12 -3.07912e-16 0)
(6.04664e-09 -4.87889e-16 0)
(2.63251e-06 3.10081e-16 0)
(0.000174206 7.69677e-15 0)
(0.00260844 -1.20482e-14 0)
(0.0136202 1.32667e-14 0)
(0.0368773 4.61239e-15 0)
(0.0690656 -1.31408e-14 0)
(0.105881 1.94007e-14 0)
(0.144974 -7.14076e-15 0)
(0.185327 5.36791e-15 0)
(0.226484 5.41337e-15 0)
(0.268206 -7.56914e-15 0)
(0.310355 9.79313e-15 0)
(0.352842 -5.75749e-15 0)
(0.395616 2.12984e-14 0)
(0.438647 -2.93294e-16 0)
(0.481921 -2.35838e-15 0)
(0.525438 2.17786e-14 0)
(0.569204 4.90781e-15 0)
(0.613224 3.67178e-15 0)
(0.657499 2.88594e-15 0)
(0.702001 1.70519e-14 0)
(0.74666 1.59661e-14 0)
(0.791276 9.60532e-15 0)
(0.835376 8.80563e-15 0)
(0.877419 1.7206e-14 0)
(0.913199 5.83645e-15 0)
(0.933442 9.38209e-15 0)
(0.935215 1.0591e-14 0)
(0.925266 7.22928e-15 0)
(0.926579 7.32831e-15 0)
(0.927548 1.08429e-14 0)
(0.927751 6.50338e-15 0)
(0.927957 3.61578e-15 0)
(0.928101 1.85137e-15 0)
(0.92833 -1.98982e-15 0)
(0.928454 6.38811e-16 0)
(0.928247 3.51165e-16 0)
(0.928083 2.24821e-15 0)
(0.928084 4.2688e-15 0)
(0.928145 1.71152e-15 0)
(0.928265 2.49533e-15 0)
(0.928536 1.40801e-15 0)
(0.928974 1.09954e-15 0)
(0.929677 4.03862e-15 0)
(0.92821 1.17541e-15 0)
(0.924157 6.93097e-15 0)
(0.928402 -1.33945e-15 0)
(0.930338 2.55786e-15 0)
(0.929777 -7.6975e-18 0)
(0.928287 -1.69472e-17 0)
(0.926518 2.10541e-15 0)
(0.92559 1.1929e-15 0)
(0.925344 1.5006e-15 0)
(0.92554 4.22762e-16 0)
(0.924553 7.22326e-16 0)
(0.917967 1.86756e-16 0)
(0.875201 1.47443e-15 0)
(0.671035 8.79691e-16 0)
(0.216081 2.79961e-16 0)
(0.00920482 1.72524e-15 0)
(3.10664e-05 -1.26848e-15 0)
(6.06578e-09 4.08743e-16 0)
(1.68851e-13 4.33679e-18 0)
(-5.28155e-16 0 0)
(-7.60359e-16 0 0)
(-5.48754e-16 0 0)
(-3.19341e-16 -1.6263e-17 0)
(5.35738e-17 -9.97462e-17 0)
(4.06799e-16 -9.8662e-17 0)
(4.68446e-16 0 0)
(1.83506e-16 0 0)
(-3.20845e-16 5.96309e-17 0)
(-6.24398e-16 5.85467e-17 0)
(-6.36581e-16 -7.37255e-17 0)
(-5.34331e-16 -3.03576e-17 0)
(-5.11742e-16 -1.31188e-16 0)
(3.49112e-16 1.99492e-16 0)
(3.33245e-16 0 0)
(-5.2461e-17 -2.05998e-16 0)
(-1.24003e-16 -5.35594e-16 0)
(-5.44832e-17 -3.01407e-16 0)
(9.85942e-17 -6.50519e-18 0)
(4.10112e-16 1.92987e-16 0)
(1.9497e-16 4.01153e-16 0)
(-1.4936e-17 2.60208e-16 0)
(2.50302e-16 7.37255e-17 0)
(4.36765e-16 0 0)
(6.91063e-17 0 0)
(-3.00368e-16 0 0)
(-8.44026e-18 -7.37255e-17 0)
(2.33298e-16 0 0)
(-2.60948e-17 9.32411e-17 0)
(-3.29517e-16 9.32411e-17 0)
(-4.01502e-16 0 0)
(-1.15258e-16 0 0)
(5.28928e-17 0 0)
(1.7584e-16 0 0)
(1.93328e-16 8.23991e-17 0)
(1.50382e-12 2.1684e-18 0)
(6.04664e-09 2.23345e-16 0)
(2.63251e-06 -4.91577e-15 0)
(0.000174206 1.70678e-15 0)
(0.00260844 -1.43126e-14 0)
(0.0136202 1.6114e-14 0)
(0.0368773 -3.6738e-15 0)
(0.0690656 -3.87508e-15 0)
(0.105881 1.31237e-14 0)
(0.144974 -6.39562e-15 0)
(0.185327 8.14214e-15 0)
(0.226484 5.99991e-15 0)
(0.268206 -8.78075e-15 0)
(0.310355 9.57166e-15 0)
(0.352842 -2.31391e-15 0)
(0.395616 1.45448e-14 0)
(0.438647 3.82557e-17 0)
(0.481921 9.43682e-16 0)
(0.525438 1.56459e-14 0)
(0.569204 5.0355e-15 0)
(0.613224 5.15904e-15 0)
(0.657499 2.23506e-15 0)
(0.702001 1.35828e-14 0)
(0.74666 1.00227e-14 0)
(0.791276 1.00667e-14 0)
(0.835376 3.58911e-15 0)
(0.877419 2.28477e-14 0)
(0.913199 1.25506e-15 0)
(0.933442 1.40042e-14 0)
(0.935215 1.32525e-14 0)
(0.925266 8.56706e-15 0)
(0.926579 9.04759e-15 0)
(0.927548 8.91666e-15 0)
(0.927751 3.6851e-15 0)
(0.927957 6.93279e-15 0)
(0.928101 7.62535e-16 0)
(0.92833 -6.69948e-16 0)
(0.928454 3.89519e-16 0)
(0.928247 -5.8676e-16 0)
(0.928083 1.76629e-15 0)
(0.928084 1.86851e-15 0)
(0.928145 1.69838e-15 0)
(0.928265 5.88218e-16 0)
(0.928536 4.84785e-16 0)
(0.928974 4.98285e-16 0)
(0.929677 2.34661e-15 0)
(0.92821 2.85212e-15 0)
(0.924157 4.76514e-15 0)
(0.928402 -2.92161e-15 0)
(0.930338 -3.56982e-16 0)
(0.929777 -3.99243e-16 0)
(0.928287 -8.75092e-16 0)
(0.926518 6.64813e-16 0)
(0.92559 4.72437e-16 0)
(0.925344 -8.88045e-16 0)
(0.92554 -2.11125e-16 0)
(0.924553 -2.86881e-16 0)
(0.917967 3.02514e-16 0)
(0.875201 -1.36797e-16 0)
(0.671035 6.82736e-16 0)
(0.216081 -2.04881e-15 0)
(0.00920482 -1.41547e-15 0)
(3.10664e-05 4.99801e-16 0)
(6.06578e-09 1.0842e-18 0)
(1.68912e-13 0 0)
(-4.25247e-16 0 0)
(-6.78684e-16 1.06251e-16 0)
(-6.15852e-16 2.08166e-16 0)
(-3.98272e-16 -5.42099e-18 0)
(6.85869e-17 -1.0842e-18 0)
(4.72764e-16 0 0)
(5.77832e-16 -1.78893e-16 0)
(3.73909e-16 -3.19838e-16 0)
(-2.5243e-17 -7.91465e-17 0)
(-5.38796e-16 2.27682e-16 0)
(-8.11927e-16 1.8865e-16 0)
(-7.07052e-16 2.93818e-16 0)
(-6.28835e-16 2.23345e-16 0)
(7.24244e-16 4.85721e-16 0)
(4.6595e-16 1.84314e-16 0)
(-7.26734e-17 1.32272e-16 0)
(-2.9472e-16 -2.05998e-16 0)
(-1.13126e-16 2.1684e-18 0)
(3.02238e-16 7.80623e-17 0)
(4.69427e-16 5.05236e-16 0)
(1.96404e-16 7.76286e-16 0)
(8.62247e-18 5.85467e-16 0)
(2.70164e-16 3.12249e-16 0)
(3.71186e-16 1.49619e-16 0)
(7.49171e-17 -1.49619e-16 0)
(-2.30064e-16 -7.80623e-17 0)
(-7.35901e-18 -2.58039e-16 0)
(2.38178e-16 -4.55363e-17 0)
(-6.22491e-17 4.33679e-17 0)
(-3.63075e-16 3.46943e-16 0)
(-4.93971e-16 1.64798e-16 0)
(-1.92074e-16 0 0)
(6.76817e-17 0 0)
(9.67488e-17 0 0)
(3.67376e-16 -9.97462e-17 0)
(1.50368e-12 -9.97462e-17 0)
(6.04665e-09 2.08166e-15 0)
(2.63251e-06 -1.08572e-14 0)
(0.000174206 -1.66774e-15 0)
(0.00260844 -9.34906e-15 0)
(0.0136202 1.85489e-14 0)
(0.0368773 -1.02763e-14 0)
(0.0690656 3.30934e-15 0)
(0.105881 1.11714e-14 0)
(0.144974 -8.45548e-15 0)
(0.185327 1.23632e-14 0)
(0.226484 6.78022e-15 0)
(0.268206 -7.48846e-15 0)
(0.310355 9.83004e-15 0)
(0.352842 2.16053e-15 0)
(0.395616 8.54847e-15 0)
(0.438647 -9.46828e-16 0)
(0.481921 4.62719e-15 0)
(0.525438 9.96907e-15 0)
(0.569204 4.86645e-15 0)
(0.613224 6.88809e-15 0)
(0.657499 2.9651e-15 0)
(0.702001 9.86893e-15 0)
(0.74666 3.71847e-15 0)
(0.791276 1.03591e-14 0)
(0.835376 6.0012e-16 0)
(0.877419 2.39187e-14 0)
(0.913199 2.13146e-16 0)
(0.933442 1.44066e-14 0)
(0.935215 1.34851e-14 0)
(0.925266 9.01035e-15 0)
(0.926579 8.58814e-15 0)
(0.927548 6.77098e-15 0)
(0.927751 1.34507e-16 0)
(0.927957 9.26258e-15 0)
(0.928101 -8.75644e-16 0)
(0.92833 -9.02586e-17 0)
(0.928454 1.65569e-15 0)
(0.928247 -1.49858e-15 0)
(0.928083 2.3345e-15 0)
(0.928084 -6.62717e-16 0)
(0.928145 9.36129e-16 0)
(0.928265 -4.32473e-16 0)
(0.928536 -1.28528e-16 0)
(0.928974 1.4558e-16 0)
(0.929677 -5.41358e-16 0)
(0.92821 2.52125e-15 0)
(0.924157 2.12602e-15 0)
(0.928402 -1.89602e-15 0)
(0.930338 -1.63207e-15 0)
(0.929777 1.30447e-15 0)
(0.928287 1.33318e-15 0)
(0.926518 -6.44262e-16 0)
(0.92559 1.08352e-15 0)
(0.925344 -1.60628e-15 0)
(0.92554 -3.14125e-16 0)
(0.924553 -1.05531e-15 0)
(0.917967 -5.43805e-16 0)
(0.875201 -2.06474e-15 0)
(0.671035 -6.56937e-16 0)
(0.216081 -5.02021e-15 0)
(0.00920482 -2.46848e-15 0)
(3.10664e-05 -1.70323e-15 0)
(6.06578e-09 -4.44521e-16 0)
(1.68995e-13 4.33679e-17 0)
(-1.56147e-16 -8.34833e-17 0)
(-4.70043e-16 2.0925e-16 0)
(-6.51922e-16 4.16332e-16 0)
(-4.09781e-16 2.0925e-16 0)
(3.64629e-17 5.74625e-17 0)
(4.3604e-16 9.10727e-17 0)
(5.93157e-16 -3.76217e-16 0)
(4.06652e-16 -5.62699e-16 0)
(1.32372e-16 -2.91649e-16 0)
(-4.03574e-16 7.58939e-17 0)
(-7.73228e-16 3.90311e-16 0)
(-7.60911e-16 5.41015e-16 0)
(-8.61938e-16 4.57532e-16 0)
(9.51926e-16 2.4286e-16 0)
(5.34927e-16 1.04083e-16 0)
(-6.9374e-17 1.34441e-16 0)
(-3.25009e-16 2.51534e-16 0)
(5.80191e-18 9.97462e-17 0)
(4.06522e-16 2.66713e-16 0)
(6.51314e-16 3.23091e-16 0)
(2.75747e-16 4.38016e-16 0)
(-1.76281e-16 4.0549e-16 0)
(2.95918e-16 2.55871e-16 0)
(1.24353e-20 -4.11995e-17 0)
(-1.53601e-16 -2.60208e-16 0)
(-2.14871e-16 -1.73472e-17 0)
(-2.42873e-17 1.06251e-16 0)
(2.56216e-16 2.81892e-17 0)
(1.30394e-16 -1.49619e-16 0)
(-1.96988e-16 1.30104e-16 0)
(-5.62161e-16 2.38524e-16 0)
(-2.5525e-16 8.89043e-17 0)
(5.41104e-17 1.92987e-16 0)
(-1.52482e-16 4.11995e-17 0)
(7.52828e-17 -2.86228e-16 0)
(1.50402e-12 1.7564e-16 0)
(6.04665e-09 3.08129e-15 0)
(2.63251e-06 -7.79757e-15 0)
(0.000174206 -6.68398e-15 0)
(0.00260844 -4.48763e-15 0)
(0.0136202 9.6956e-15 0)
(0.0368773 -1.08983e-14 0)
(0.0690656 4.1085e-15 0)
(0.105881 1.0337e-14 0)
(0.144974 -9.64254e-15 0)
(0.185327 1.38203e-14 0)
(0.226484 5.55967e-15 0)
(0.268206 -5.92129e-15 0)
(0.310355 1.00174e-14 0)
(0.352842 5.37257e-15 0)
(0.395616 4.41755e-15 0)
(0.438647 -3.9244e-15 0)
(0.481921 8.57606e-15 0)
(0.525438 3.8571e-15 0)
(0.569204 4.17227e-15 0)
(0.613224 8.47189e-15 0)
(0.657499 3.6062e-15 0)
(0.702001 6.42225e-15 0)
(0.74666 9.32546e-16 0)
(0.791276 8.4469e-15 0)
(0.835376 1.06791e-15 0)
(0.877419 2.25923e-14 0)
(0.913199 -4.1877e-15 0)
(0.933442 1.54806e-14 0)
(0.935215 1.53243e-14 0)
(0.925266 1.02872e-14 0)
(0.926579 5.85369e-15 0)
(0.927548 5.732e-15 0)
(0.927751 -4.07654e-16 0)
(0.927957 8.06718e-15 0)
(0.928101 -1.65025e-15 0)
(0.92833 -1.25854e-16 0)
(0.928454 3.20391e-15 0)
(0.928247 8.16943e-16 0)
(0.928083 1.27862e-15 0)
(0.928084 -1.02681e-15 0)
(0.928145 5.9527e-16 0)
(0.928265 -9.02094e-16 0)
(0.928536 -1.40439e-15 0)
(0.928974 5.52334e-18 0)
(0.929677 -2.9681e-15 0)
(0.92821 1.16208e-15 0)
(0.924157 -1.85484e-16 0)
(0.928402 -3.78386e-15 0)
(0.930338 -2.44759e-15 0)
(0.929777 1.25213e-16 0)
(0.928287 2.02185e-15 0)
(0.926518 -1.0974e-15 0)
(0.92559 1.10098e-15 0)
(0.925344 -2.13675e-15 0)
(0.92554 6.63608e-16 0)
(0.924553 -7.69969e-16 0)
(0.917967 -8.51978e-16 0)
(0.875201 -1.7113e-15 0)
(0.671035 8.24317e-17 0)
(0.216081 -2.79779e-15 0)
(0.00920482 -3.89471e-15 0)
(3.10664e-05 -1.1503e-15 0)
(6.06578e-09 -6.61361e-17 0)
(1.68845e-13 -4.87889e-17 0)
(-3.98714e-18 -2.74302e-16 0)
(-1.97076e-16 4.98731e-17 0)
(-4.21493e-16 2.8406e-16 0)
(-3.09358e-16 3.96817e-16 0)
(-9.61385e-17 1.91903e-16 0)
(2.084e-16 9.21569e-17 0)
(3.24213e-16 -1.63714e-16 0)
(5.25217e-16 -3.37186e-16 0)
(2.60516e-16 -1.89735e-16 0)
(-2.43932e-16 -1.10588e-16 0)
(-6.00976e-16 2.17924e-16 0)
(-8.29453e-16 3.3827e-16 0)
(-1.03649e-15 3.1767e-16 0)
(7.37255e-16 -2.1684e-18 0)
(4.13556e-16 2.55871e-16 0)
(-1.21642e-19 3.10081e-16 0)
(-1.46071e-17 5.59446e-16 0)
(1.8665e-16 3.70796e-16 0)
(4.00103e-16 5.63783e-16 0)
(4.24032e-16 3.62122e-16 0)
(1.67952e-16 1.0842e-16 0)
(6.69283e-17 1.97324e-16 0)
(-8.56515e-17 -1.2143e-16 0)
(-3.25333e-16 -3.77301e-16 0)
(-6.77204e-17 -1.25767e-16 0)
(-2.22321e-16 2.19008e-16 0)
(1.69482e-17 4.77047e-16 0)
(2.35881e-16 2.62376e-16 0)
(8.70491e-17 3.03576e-17 0)
(-9.73688e-17 1.38777e-16 0)
(-3.78096e-16 4.20669e-16 0)
(-1.16419e-16 2.9707e-16 0)
(9.95319e-17 4.57532e-16 0)
(-1.37776e-16 2.4286e-16 0)
(-8.50745e-17 6.28835e-17 0)
(1.50455e-12 1.99492e-16 0)
(6.04665e-09 3.22874e-15 0)
(2.63251e-06 1.46801e-15 0)
(0.000174206 -6.92905e-15 0)
(0.00260844 -3.21415e-15 0)
(0.0136202 6.0411e-15 0)
(0.0368773 -4.85291e-15 0)
(0.0690656 3.19665e-15 0)
(0.105881 5.61951e-15 0)
(0.144974 -1.12445e-14 0)
(0.185327 1.26239e-14 0)
(0.226484 5.02453e-15 0)
(0.268206 -3.38457e-15 0)
(0.310355 7.00909e-15 0)
(0.352842 6.28251e-15 0)
(0.395616 2.48162e-15 0)
(0.438647 -4.79152e-15 0)
(0.481921 1.25415e-14 0)
(0.525438 -2.02351e-15 0)
(0.569204 2.43323e-15 0)
(0.613224 9.32751e-15 0)
(0.657499 3.0941e-15 0)
(0.702001 4.58164e-15 0)
(0.74666 -1.67134e-16 0)
(0.791276 4.24124e-15 0)
(0.835376 -1.79804e-15 0)
(0.877419 2.17138e-14 0)
(0.913199 -5.62079e-15 0)
(0.933442 1.39079e-14 0)
(0.935215 1.29195e-14 0)
(0.925266 8.23357e-15 0)
(0.926579 2.5616e-15 0)
(0.927548 2.78077e-15 0)
(0.927751 -2.80143e-16 0)
(0.927957 5.47962e-16 0)
(0.928101 -2.87539e-16 0)
(0.92833 2.24058e-15 0)
(0.928454 1.25377e-15 0)
(0.928247 2.2337e-15 0)
(0.928083 3.0871e-16 0)
(0.928084 1.2303e-15 0)
(0.928145 1.158e-15 0)
(0.928265 -1.58028e-15 0)
(0.928536 -1.95905e-15 0)
(0.928974 9.08985e-16 0)
(0.929677 -1.30832e-15 0)
(0.92821 -2.29988e-15 0)
(0.924157 2.98791e-15 0)
(0.928402 -2.84685e-15 0)
(0.930338 -5.05725e-16 0)
(0.929777 3.00716e-16 0)
(0.928287 -1.28388e-17 0)
(0.926518 2.65103e-16 0)
(0.92559 1.40961e-15 0)
(0.925344 1.5124e-15 0)
(0.92554 1.31697e-15 0)
(0.924553 2.98664e-16 0)
(0.917967 3.97178e-16 0)
(0.875201 1.38075e-15 0)
(0.671035 7.92855e-17 0)
(0.216081 3.03413e-15 0)
(0.00920482 -8.17447e-17 0)
(3.10664e-05 -1.08417e-16 0)
(6.06578e-09 -2.37439e-16 0)
(1.68644e-13 -3.40438e-16 0)
(1.08219e-16 -7.80623e-17 0)
(-1.87356e-18 0 0)
(-1.30599e-16 -1.6263e-17 0)
(-2.53537e-16 1.95156e-16 0)
(-1.32012e-16 9.10727e-17 0)
(5.31991e-17 2.61292e-16 0)
(2.11167e-16 2.95986e-16 0)
(3.41524e-16 1.13841e-16 0)
(8.75708e-17 -1.50704e-16 0)
(-3.03879e-16 -2.81892e-16 0)
(-5.79747e-16 -1.0842e-18 0)
(-7.5102e-16 8.89043e-17 0)
(-9.45421e-16 1.43114e-16 0)
(9.38916e-16 -2.19008e-16 0)
(5.32517e-16 -9.97462e-17 0)
(2.22332e-17 -3.90311e-17 0)
(-6.37174e-17 2.51534e-16 0)
(2.84685e-16 1.90819e-16 0)
(6.23437e-16 2.73218e-16 0)
(2.91184e-16 -5.63783e-17 0)
(9.36601e-17 -3.96817e-16 0)
(-1.88918e-16 -2.60208e-16 0)
(-4.31997e-16 -4.98731e-16 0)
(-9.71618e-17 -1.56125e-16 0)
(1.89716e-16 1.36609e-16 0)
(-4.00958e-17 3.03576e-17 0)
(-2.1416e-16 2.51534e-16 0)
(-4.16574e-17 -4.33679e-18 0)
(2.70942e-16 -8.23991e-17 0)
(1.52662e-16 -1.64798e-16 0)
(-5.17576e-17 2.81892e-17 0)
(1.24397e-17 4.33679e-18 0)
(1.10513e-16 3.25259e-17 0)
(-1.1079e-16 -1.17093e-16 0)
(-2.24187e-16 -1.73472e-17 0)
(1.50397e-12 3.10081e-16 0)
(6.04665e-09 -9.30242e-16 0)
(2.63251e-06 6.04117e-15 0)
(0.000174206 -4.67141e-15 0)
(0.00260844 8.84488e-16 0)
(0.0136202 -8.73043e-16 0)