/*--------------------------------*- C++ -*----------------------------------*\
| =========                 |                                                 |
| \\      /  F ield         | OpenFOAM: The Open Source CFD Toolbox           |
|  \\    /   O peration     | Version:  4.1                                   |
|   \\  /    A nd           | Web:      www.OpenFOAM.org                      |
|    \\/     M anipulation  |                                                 |
\*---------------------------------------------------------------------------*/
FoamFile
{
    version     2.0;
    format      ascii;
    class       volVectorField;
    location    "0.11";
    object      U;
}
// * * * * * * * * * * * * * * * * * * * * * * * * * * * * * * * * * * * * * //

dimensions      [0 1 -1 0 0 0 0];

internalField   nonuniform List<vector> 
10000
(
(0 0 0)
(3.60323e-17 0 0)
(1.54099e-16 0 0)
(3.09752e-17 1.04083e-16 0)
(-7.94977e-17 0 0)
(-3.46427e-17 0 0)
(-6.58553e-17 0 0)
(-1.97998e-18 0 0)
(5.74542e-32 0 0)
(8.50763e-17 1.10588e-16 0)
(2.8355e-16 0 0)
(-1.1538e-17 -1.47451e-16 0)
(-3.07713e-16 0 0)
(-2.11684e-17 0 0)
(1.57505e-16 0 0)
(3.58574e-18 1.17093e-16 0)
(-1.54047e-16 0 0)
(-1.84873e-17 0 0)
(-1.34955e-19 0 0)
(-7.16811e-18 0 0)
(8.05642e-21 0 0)
(1.00609e-18 9.32411e-17 0)
(2.61779e-18 0 0)
(4.57087e-17 0 0)
(-2.65131e-18 0 0)
(-6.11324e-17 0 0)
(-2.65579e-16 -1.17093e-16 0)
(-2.892e-18 8.02307e-17 0)
(2.4558e-16 0 0)
(1.13591e-17 1.30104e-16 0)
(-1.53236e-16 0 0)
(-1.35287e-21 -1.01915e-16 0)
(8.02657e-17 -2.1684e-18 0)
(-1.04773e-16 0 0)
(7.43963e-18 5.63783e-17 0)
(-3.38043e-17 3.07912e-16 0)
(-2.28116e-17 1.23599e-16 0)
(4.8756e-14 0 0)
(7.17407e-10 -8.02307e-16 0)
(9.24541e-07 3.40005e-15 0)
(0.00014107 -8.82643e-16 0)
(0.00376845 3.73506e-15 0)
(0.0278114 4.61507e-15 0)
(0.0900116 1.28829e-17 0)
(0.183599 1.10667e-15 0)
(0.293811 -8.47319e-15 0)
(0.411836 -5.09124e-15 0)
(0.535691 5.33562e-15 0)
(0.664405 1.94508e-15 0)
(0.796958 -4.66752e-15 0)
(0.907285 2.60648e-15 0)
(0.950254 4.75054e-15 0)
(0.925364 5.12375e-15 0)
(0.928699 5.77323e-15 0)
(0.933294 3.36713e-15 0)
(0.936194 1.43205e-15 0)
(0.954826 1.01909e-15 0)
(0.954588 7.25914e-17 0)
(0.886451 -7.96559e-16 0)
(0.621209 -5.02837e-16 0)
(0.151378 1.14521e-15 0)
(0.0042204 1.91199e-15 0)
(8.93836e-06 -1.23598e-16 0)
(1.04671e-09 -5.42099e-18 0)
(2.76159e-14 -5.58362e-16 0)
(-1.938e-16 -6.17993e-17 0)
(-5.89142e-17 0 0)
(8.2623e-20 0 0)
(1.06812e-16 0 0)
(2.7256e-16 0 0)
(6.6263e-17 0 0)
(-1.3966e-16 0 0)
(4.1897e-18 1.2902e-16 0)
(-5.55261e-17 3.76217e-16 0)
(-1.69793e-16 1.61546e-16 0)
(3.84007e-17 0 0)
(2.43071e-16 0 0)
(4.16408e-17 0 0)
(-1.47087e-16 9.54094e-17 0)
(4.19835e-17 0 0)
(2.394e-16 0 0)
(3.66982e-17 0 0)
(-1.66778e-16 0 0)
(3.54371e-17 0 0)
(2.32183e-16 7.15571e-17 0)
(7.24969e-17 0 0)
(-1.23177e-16 0 0)
(-1.44507e-17 0 0)
(-7.49864e-18 0 0)
(-5.66333e-17 0 0)
(-1.25956e-16 -6.50519e-18 0)
(-2.75148e-16 0 0)
(-9.0862e-17 0 0)
(5.8693e-17 0 0)
(2.35167e-16 0 0)
(3.35531e-17 0 0)
(-1.59356e-16 8.34833e-17 0)
(-8.52056e-17 0 0)
(-1.22395e-17 0 0)
(0 0 0)
(0 0 0)
(1.06581e-16 0 0)
(2.38782e-16 1.04083e-16 0)
(4.80221e-17 2.88397e-16 0)
(-1.41142e-16 1.04083e-16 0)
(-1.26178e-16 1.92987e-16 0)
(-1.83555e-16 1.0842e-17 0)
(-1.64294e-17 0 0)
(-3.0745e-30 0 0)
(8.39043e-17 0 0)
(3.11793e-16 0 0)
(8.52261e-18 0 0)
(-2.78492e-16 0 0)
(3.87034e-19 0 0)
(1.93541e-16 1.19262e-16 0)
(-4.88398e-18 3.01407e-16 0)
(-1.98274e-16 1.19262e-16 0)
(-5.42953e-17 0 0)
(-2.49685e-18 0 0)
(-5.08411e-17 0 0)
(1.70523e-19 0 0)
(1.06798e-17 2.1684e-18 0)
(9.58634e-18 0 0)
(1.24794e-16 3.25259e-17 0)
(-1.7595e-17 1.71303e-16 0)
(-1.8991e-16 0 0)
(-1.56969e-16 6.72203e-17 0)
(-2.45524e-18 2.62376e-16 0)
(1.29138e-16 8.23991e-17 0)
(1.64607e-17 0 0)
(-1.76776e-16 0 0)
(-1.65294e-20 4.11995e-17 0)
(1.76776e-16 -4.98731e-17 0)
(3.74133e-18 0 0)
(2.67663e-17 1.92987e-16 0)
(-2.3021e-17 4.90058e-16 0)
(-1.45794e-16 3.07912e-16 0)
(4.86767e-14 5.20415e-17 0)
(7.17405e-10 -1.77809e-15 0)
(9.24541e-07 7.23594e-15 0)
(0.00014107 -9.47052e-15 0)
(0.00376845 1.04634e-14 0)
(0.0278114 4.6184e-15 0)
(0.0900116 -1.23184e-14 0)
(0.183599 6.11909e-15 0)
(0.293811 -1.52632e-15 0)
(0.411836 -1.01887e-15 0)
(0.535691 1.22096e-17 0)
(0.664405 2.29371e-15 0)
(0.796958 -8.68739e-16 0)
(0.907285 3.70674e-15 0)
(0.950254 4.35158e-15 0)
(0.925364 3.45466e-15 0)
(0.928699 4.91708e-15 0)
(0.933294 2.78022e-15 0)
(0.936194 1.58817e-15 0)
(0.954826 6.64499e-16 0)
(0.954588 -8.1974e-16 0)
(0.886451 -3.35924e-16 0)
(0.621209 -3.6676e-15 0)
(0.151378 1.63725e-15 0)
(0.0042204 3.13912e-15 0)
(8.93836e-06 -3.37183e-16 0)
(1.04671e-09 1.6263e-16 0)
(2.79654e-14 3.68627e-17 0)
(-1.86075e-16 1.32272e-16 0)
(-5.85632e-17 4.33679e-18 0)
(2.06653e-18 0 0)
(1.28251e-16 0 0)
(2.86931e-16 1.01915e-16 0)
(1.00881e-16 0 0)
(-9.76994e-17 0 0)
(8.62093e-18 8.78201e-17 0)
(-8.8282e-17 1.87566e-16 0)
(-1.90542e-16 8.78201e-17 0)
(1.5579e-17 6.93887e-17 0)
(2.14488e-16 0 0)
(1.49282e-17 2.81892e-17 0)
(-1.55581e-16 1.98408e-16 0)
(1.64247e-17 2.81892e-17 0)
(2.17457e-16 0 0)
(2.47965e-17 0 0)
(-1.7515e-16 0 0)
(3.26004e-17 7.91465e-17 0)
(2.34157e-16 1.73472e-16 0)
(6.7008e-17 4.33679e-18 0)
(-1.43131e-16 0 0)
(-3.62623e-17 0 0)
(-3.03921e-17 0 0)
(-1.1301e-16 -6.50519e-18 0)
(-8.23097e-17 -1.0842e-16 0)
(-1.95718e-16 3.79469e-17 0)
(-7.96752e-17 1.5504e-16 0)
(6.44468e-17 0 0)
(2.4574e-16 0 0)
(4.78124e-17 1.95156e-17 0)
(-1.22803e-16 1.86482e-16 0)
(-1.54612e-16 1.25767e-16 0)
(-6.67662e-17 4.77047e-17 0)
(0 1.26851e-16 0)
(0 0 0)
(1.75262e-16 0 0)
(4.595e-16 0 0)
(8.32988e-17 7.15571e-17 0)
(-3.90556e-16 3.12249e-16 0)
(-2.43295e-16 4.96563e-16 0)
(-2.70089e-16 2.01661e-16 0)
(-4.97398e-17 0 0)
(-5.0186e-26 0 0)
(1.23883e-16 0 0)
(3.89436e-16 0 0)
(5.10505e-17 4.33679e-18 0)
(-2.37291e-16 0 0)
(1.89531e-17 1.86482e-16 0)
(2.87786e-16 3.90311e-17 0)
(-7.71257e-18 6.72203e-17 0)
(-3.40768e-16 0 0)
(-9.86963e-17 0 0)
(-1.64762e-17 1.01915e-16 0)
(-1.62183e-16 0 0)
(1.73961e-18 0 0)
(8.26637e-17 0 0)
(4.56699e-17 6.72203e-17 0)
(1.60601e-16 2.47197e-16 0)
(-5.4633e-17 4.55363e-16 0)
(-3.06656e-16 2.03829e-16 0)
(-3.00946e-16 0 0)
(-6.10799e-18 4.55363e-17 0)
(2.46722e-16 0 0)
(5.90489e-17 0 0)
(-1.92106e-23 7.80623e-17 0)
(-9.74638e-20 3.16586e-16 0)
(2.64847e-22 1.36609e-16 0)
(8.99792e-18 1.43114e-16 0)
(6.12277e-17 3.57785e-16 0)
(8.65553e-17 3.83806e-16 0)
(-3.69587e-17 5.72457e-16 0)
(4.85575e-14 1.73472e-16 0)
(7.17404e-10 1.11239e-15 0)
(9.24541e-07 6.3816e-15 0)
(0.00014107 -1.21401e-14 0)
(0.00376845 1.14532e-14 0)
(0.0278114 5.74302e-15 0)
(0.0900116 -1.69456e-14 0)
(0.183599 9.55345e-15 0)
(0.293811 -1.95761e-15 0)
(0.411836 2.47707e-15 0)
(0.535691 -5.04084e-16 0)
(0.664405 3.37606e-15 0)
(0.796958 1.22829e-17 0)
(0.907285 5.15461e-16 0)
(0.950254 2.07473e-15 0)
(0.925364 1.78721e-15 0)
(0.928699 4.9393e-15 0)
(0.933294 3.61684e-15 0)
(0.936194 1.24385e-15 0)
(0.954826 -3.0803e-16 0)
(0.954588 -1.08393e-15 0)
(0.886451 4.10751e-16 0)
(0.621209 -2.78382e-15 0)
(0.151378 2.34222e-15 0)
(0.0042204 3.90716e-15 0)
(8.93836e-06 -4.26086e-16 0)
(1.04671e-09 8.66274e-16 0)
(2.75727e-14 3.36101e-16 0)
(-2.94977e-16 3.12249e-16 0)
(-1.24307e-16 1.46367e-16 0)
(1.4794e-17 5.09573e-17 0)
(1.12465e-16 1.36609e-16 0)
(2.18405e-16 3.03576e-16 0)
(4.88414e-17 1.34441e-16 0)
(-1.46599e-16 1.10588e-16 0)
(-1.82687e-17 1.30104e-16 0)
(1.36033e-17 1.6263e-17 0)
(-7.77233e-17 1.27935e-16 0)
(3.5505e-17 2.41776e-16 0)
(1.40627e-16 1.40946e-16 0)
(-1.12096e-18 4.87889e-17 0)
(-1.69293e-16 9.64936e-17 0)
(-7.17226e-17 1.31188e-16 0)
(9.67042e-17 1.04083e-16 0)
(9.22211e-17 4.11995e-17 0)
(-1.20434e-17 1.51788e-16 0)
(9.24797e-17 2.55871e-16 0)
(1.63972e-16 9.21569e-17 0)
(1.71457e-18 -9.8662e-17 0)
(-1.63212e-16 -5.63783e-17 0)
(-6.23942e-17 5.20415e-17 0)
(-5.73956e-17 -4.98731e-17 0)
(-1.58949e-16 5.42099e-17 0)
(-5.65903e-17 -2.1684e-18 0)
(-5.18126e-17 1.82145e-16 0)
(-1.07984e-16 3.40438e-16 0)
(-3.24344e-17 1.9624e-16 0)
(1.77182e-16 7.37255e-17 0)
(1.40668e-16 -7.26413e-17 0)
(-6.36796e-17 9.97462e-17 0)
(-2.37213e-16 3.02491e-16 0)
(-1.35582e-16 2.01661e-16 0)
(-1.45283e-16 3.02491e-16 0)
(-2.1684e-18 -2.1684e-18 0)
(1.80996e-16 -2.1684e-18 0)
(4.6376e-16 -2.1684e-18 0)
(1.44375e-16 3.90311e-17 0)
(-2.03531e-16 2.86228e-16 0)
(-4.71203e-16 1.0842e-16 0)
(-2.84569e-16 -2.1684e-18 0)
(-5.48791e-17 -2.1684e-18 0)
(-1.12096e-22 0 0)
(3.3686e-17 0 0)
(2.44862e-16 -4.33679e-18 0)
(6.80609e-17 -1.73472e-16 0)
(7.36779e-17 1.36609e-16 0)
(5.86172e-17 4.83552e-16 0)
(1.73601e-16 2.21176e-16 0)
(-8.25767e-18 0 0)
(-1.71003e-16 -2.1684e-18 0)
(1.24303e-17 1.14925e-16 0)
(-4.30046e-17 3.5128e-16 0)
(-2.22127e-16 1.73472e-16 0)
(9.39724e-18 0 0)
(2.03017e-16 1.17093e-16 0)
(7.33136e-17 2.99239e-16 0)
(2.52926e-16 1.14925e-16 0)
(-1.13477e-16 8.67359e-17 0)
(-4.76555e-16 2.38524e-17 0)
(-4.41568e-16 -4.33679e-18 0)
(-2.60313e-17 0 0)
(3.50004e-16 -2.1684e-18 0)
(9.96432e-17 0 0)
(-1.10747e-22 0 0)
(-4.53148e-19 7.80623e-17 0)
(1.34371e-21 0 0)
(1.81511e-17 -2.1684e-18 0)
(9.69738e-17 9.54094e-17 0)
(2.53825e-16 1.2143e-16 0)
(2.01268e-16 2.49366e-16 0)
(4.83133e-14 4.14164e-16 0)
(7.17406e-10 3.72964e-16 0)
(9.24541e-07 2.21827e-15 0)
(0.00014107 -9.01293e-15 0)
(0.00376845 5.69504e-15 0)
(0.0278114 1.25196e-14 0)
(0.0900116 -2.01101e-14 0)
(0.183599 1.23995e-14 0)
(0.293811 -3.2991e-15 0)
(0.411836 2.14368e-15 0)
(0.535691 -3.80243e-16 0)
(0.664405 8.27273e-16 0)
(0.796958 -3.1422e-15 0)
(0.907285 -1.56238e-16 0)
(0.950254 6.90916e-16 0)
(0.925364 2.67002e-15 0)
(0.928699 3.93236e-15 0)
(0.933294 3.61984e-15 0)
(0.936194 2.17374e-15 0)
(0.954826 2.66176e-16 0)
(0.954588 -1.32344e-16 0)
(0.886451 -1.45089e-15 0)
(0.621209 -2.49895e-15 0)
(0.151378 1.1807e-15 0)
(0.0042204 7.98283e-16 0)
(8.93836e-06 1.25983e-15 0)
(1.04671e-09 1.10805e-15 0)
(2.77402e-14 -9.75778e-18 0)
(-1.98784e-16 2.40692e-16 0)
(-1.05159e-16 3.25259e-16 0)
(2.97047e-17 1.91903e-16 0)
(1.71073e-16 2.65629e-16 0)
(6.67456e-17 3.06828e-16 0)
(-8.31671e-17 1.72388e-16 0)
(-1.92834e-16 2.81892e-16 0)
(-3.9232e-17 2.66713e-16 0)
(2.44058e-17 1.26851e-16 0)
(8.59738e-17 2.30934e-16 0)
(1.16412e-17 2.73218e-16 0)
(5.24874e-17 3.23091e-16 0)
(-2.91692e-17 1.68051e-16 0)
(-1.87832e-16 1.56125e-16 0)
(-3.84143e-17 3.07912e-16 0)
(8.14602e-17 3.33933e-16 0)
(2.1818e-16 1.97324e-16 0)
(1.64824e-16 3.41522e-16 0)
(-3.73466e-17 3.33933e-16 0)
(-1.19937e-16 1.11672e-16 0)
(-1.70366e-17 -3.90311e-17 0)
(3.93271e-17 6.61361e-17 0)
(-5.99942e-17 1.2143e-16 0)
(-9.83287e-17 1.84314e-17 0)
(-5.5519e-17 1.20346e-16 0)
(5.19846e-18 1.73472e-17 0)
(3.27344e-17 8.56517e-17 0)
(-1.45579e-16 2.11419e-16 0)
(-1.62449e-16 3.91396e-16 0)
(-1.35859e-17 2.66713e-16 0)
(-3.28337e-17 1.05167e-16 0)
(8.21658e-17 0 0)
(-7.48164e-17 1.47451e-16 0)
(-1.95787e-16 1.86482e-16 0)
(-3.65375e-16 1.64798e-16 0)
(-2.1684e-18 2.1684e-18 0)
(2.43261e-16 2.1684e-18 0)
(5.67371e-16 2.1684e-18 0)
(2.00226e-16 1.66967e-16 0)
(-3.59797e-16 -1.12757e-16 0)
(-4.37125e-16 -4.85721e-16 0)
(-1.46326e-16 -1.95156e-16 0)
(-5.176e-20 2.1684e-18 0)
(-3.48872e-20 0 0)
(8.58514e-17 -2.1684e-18 0)
(3.16441e-16 -6.07151e-17 0)
(1.36441e-16 1.14925e-16 0)
(3.14999e-16 0 0)
(1.34969e-16 1.30104e-16 0)
(1.96843e-16 -1.30104e-17 0)
(-2.12638e-17 9.10727e-17 0)
(-2.72687e-16 2.1684e-18 0)
(-2.82466e-17 2.1684e-18 0)
(-6.58452e-17 -1.51788e-17 0)
(-2.77209e-16 0 0)
(4.09861e-17 0 0)
(2.72484e-16 2.58039e-16 0)
(2.52304e-17 3.46943e-17 0)
(-4.53643e-17 -6.93887e-17 0)
(-4.41141e-17 -3.27428e-16 0)
(-2.2568e-16 -1.45283e-16 0)
(-1.9711e-16 -1.12757e-16 0)
(5.07336e-17 0 0)
(1.00649e-16 2.1684e-18 0)
(2.06791e-23 0 0)
(-2.42513e-20 0 0)
(-5.35275e-18 0 0)
(1.12239e-19 0 0)
(5.20733e-17 2.1684e-18 0)
(2.57217e-16 0 0)
(7.54157e-17 1.43114e-16 0)
(-9.47287e-17 -5.20415e-17 0)
(4.93742e-14 6.31003e-16 0)
(7.17404e-10 1.95156e-16 0)
(9.24541e-07 2.10551e-15 0)
(0.00014107 -6.20235e-16 0)
(0.00376845 -6.48903e-15 0)
(0.0278114 2.30409e-14 0)
(0.0900116 -2.46367e-14 0)
(0.183599 1.65505e-14 0)
(0.293811 -5.74122e-15 0)
(0.411836 -1.07028e-15 0)
(0.535691 7.90139e-16 0)
(0.664405 -1.85841e-15 0)
(0.796958 -1.10882e-15 0)
(0.907285 -5.81345e-16 0)
(0.950254 -9.61073e-16 0)
(0.925364 1.33926e-15 0)
(0.928699 -8.87952e-16 0)
(0.933294 2.85382e-17 0)
(0.936194 2.13267e-15 0)
(0.954826 -8.82237e-16 0)
(0.954588 9.77268e-16 0)
(0.886451 -3.04614e-15 0)
(0.621209 -3.12435e-15 0)
(0.151378 1.3802e-15 0)
(0.0042204 -2.40889e-16 0)
(8.93836e-06 5.75054e-15 0)
(1.04671e-09 -6.48351e-16 0)
(2.81883e-14 -3.03576e-17 0)
(1.63385e-17 -3.25259e-18 0)
(-9.57827e-17 1.53956e-16 0)
(4.04858e-17 1.91903e-16 0)
(1.89706e-16 8.13149e-17 0)
(6.54953e-17 1.26851e-16 0)
(7.70902e-19 4.44521e-17 0)
(-9.02914e-17 1.47451e-16 0)
(-1.25709e-17 7.04729e-17 0)
(5.52982e-17 1.35525e-16 0)
(-3.52408e-17 1.50704e-16 0)
(3.43173e-17 7.48097e-17 0)
(1.23189e-16 1.74556e-16 0)
(2.16262e-17 7.48097e-17 0)
(-4.61779e-17 1.64798e-16 0)
(6.08901e-17 3.08997e-16 0)
(-9.33759e-19 3.98985e-16 0)
(1.02817e-16 3.12249e-16 0)
(1.02166e-18 1.7564e-16 0)
(-4.95658e-17 1.49619e-16 0)
(-1.44382e-16 2.07082e-16 0)
(-2.82785e-17 1.58293e-16 0)
(2.24076e-17 2.2985e-16 0)
(-1.23055e-16 1.0083e-16 0)
(-2.26991e-16 1.31188e-16 0)
(-1.58658e-16 -3.57785e-17 0)
(3.04048e-18 -8.56517e-17 0)
(1.93073e-16 -9.43252e-17 0)
(1.05493e-16 -5.09573e-17 0)
(5.55085e-17 2.05998e-16 0)
(2.89541e-17 3.98985e-16 0)
(-8.38578e-17 3.12249e-16 0)
(-8.60589e-17 6.72203e-17 0)
(-1.69315e-16 -1.34441e-16 0)
(-2.84805e-16 -3.79469e-17 0)
(-4.04406e-16 -1.51788e-16 0)
(0 0 0)
(1.43471e-16 0 0)
(4.15327e-16 -2.1684e-17 0)
(8.65703e-18 -1.7564e-16 0)
(-4.61173e-16 -4.94394e-16 0)
(-1.67407e-16 -2.01661e-16 0)
(-1.38598e-17 0 0)
(9.30602e-19 0 0)
(-1.88507e-18 0 0)
(1.36609e-16 2.1684e-18 0)
(3.95103e-16 1.23599e-16 0)
(1.61034e-16 2.68881e-16 0)
(-8.65865e-17 1.0842e-17 0)
(8.12561e-17 -2.23345e-16 0)
(2.63183e-16 -6.50519e-17 0)
(-3.80441e-17 -9.32411e-17 0)
(-3.72325e-16 0 0)
(-8.58147e-17 -9.97462e-17 0)
(-1.34731e-18 -3.77301e-16 0)
(-5.71799e-17 -1.36609e-16 0)
(1.775e-16 0 0)
(3.29801e-17 1.73472e-17 0)
(-1.99975e-16 -2.23345e-16 0)
(-2.67358e-17 -4.33679e-17 0)
(1.02928e-20 -8.45675e-17 0)
(-6.79157e-22 0 0)
(-8.12104e-21 1.17093e-16 0)
(6.46512e-20 0 0)
(4.32265e-19 0 0)
(-4.72071e-23 0 0)
(-1.03412e-18 0 0)
(-4.85123e-17 0 0)
(2.05671e-18 0 0)
(1.15914e-16 0 0)
(3.75584e-16 -2.1684e-18 0)
(4.7068e-17 -1.23599e-16 0)
(-2.83851e-16 -4.55363e-17 0)
(4.99107e-14 1.04083e-16 0)
(7.17406e-10 7.82791e-16 0)
(9.24541e-07 2.57172e-15 0)
(0.00014107 3.48069e-15 0)
(0.00376845 -1.78378e-14 0)
(0.0278114 2.8603e-14 0)
(0.0900116 -2.58536e-14 0)
(0.183599 1.37629e-14 0)
(0.293811 -6.77463e-15 0)
(0.411836 -1.35226e-15 0)
(0.535691 1.07096e-15 0)
(0.664405 -1.17788e-15 0)
(0.796958 2.50125e-16 0)
(0.907285 -2.23691e-15 0)
(0.950254 -2.15432e-15 0)
(0.925364 -7.0546e-16 0)
(0.928699 -1.99199e-15 0)
(0.933294 -8.98576e-16 0)
(0.936194 5.81288e-16 0)
(0.954826 -3.28158e-15 0)
(0.954588 -3.3234e-16 0)
(0.886451 -2.35465e-15 0)
(0.621209 -3.10315e-15 0)
(0.151378 1.76098e-15 0)
(0.0042204 1.84394e-15 0)
(8.93836e-06 2.74408e-15 0)
(1.04671e-09 -1.07986e-15 0)
(2.77606e-14 1.27935e-16 0)
(6.99685e-17 -1.57209e-16 0)
(4.5868e-17 -1.19262e-17 0)
(-8.68958e-17 4.55363e-17 0)
(3.61662e-17 -7.80623e-17 0)
(1.52361e-16 -1.19262e-17 0)
(4.48535e-18 0 0)
(-1.29079e-16 -1.51788e-17 0)
(-2.57612e-17 -1.17093e-16 0)
(7.57839e-17 -1.19262e-17 0)
(-2.65467e-17 -7.58939e-18 0)
(7.55768e-17 -1.12757e-16 0)
(1.80254e-16 -9.75778e-18 0)
(5.26085e-17 0 0)
(2.05551e-17 8.67359e-18 0)
(1.05862e-16 1.12757e-16 0)
(4.29288e-18 1.9624e-16 0)
(4.60221e-20 1.45283e-16 0)
(-2.73043e-17 0 0)
(-1.2489e-16 0 0)
(-1.03266e-17 6.72203e-17 0)
(1.34999e-16 2.27682e-16 0)
(9.48689e-18 7.91465e-17 0)
(-2.01904e-16 0 0)
(-3.9231e-16 6.72203e-17 0)
(-2.9199e-16 -6.61361e-17 0)
(-9.9885e-17 1.6263e-17 0)
(9.82097e-17 -2.08166e-16 0)
(3.0983e-16 -2.40692e-16 0)
(2.83403e-16 -2.1684e-17 0)
(4.25978e-17 1.9624e-16 0)
(-1.58479e-16 1.30104e-16 0)
(-2.79902e-16 -9.97462e-17 0)
(-2.54563e-16 -3.03576e-16 0)
(-1.51302e-16 -2.2985e-16 0)
(-2.21176e-16 -3.32849e-16 0)
(0 0 0)
(1.621e-17 -8.67359e-18 0)
(1.70873e-16 -2.64544e-16 0)
(-3.08135e-17 -5.05236e-16 0)
(-1.62515e-16 -2.36355e-16 0)
(-7.3839e-18 0 0)
(2.00602e-17 0 0)
(9.95978e-18 0 0)
(-2.30746e-17 0 0)
(1.13145e-16 0 0)
(3.82558e-16 0 0)
(2.93519e-19 6.50519e-17 0)
(-3.66603e-16 0 0)
(-8.02322e-17 -5.20415e-17 0)
(1.06949e-16 0 0)
(1.77019e-17 -9.32411e-17 0)
(-1.89353e-16 0 0)
(-2.15809e-17 0 0)
(-4.22523e-18 -1.14925e-16 0)
(-5.03869e-18 0 0)
(9.94196e-17 0 0)
(1.13096e-18 -9.32411e-17 0)
(-1.19488e-16 -4.55363e-17 0)
(-8.09734e-18 0 0)
(3.83751e-20 0 0)
(-1.25857e-19 0 0)
(-3.93517e-20 0 0)
(5.35261e-19 0 0)
(-5.91385e-19 0 0)
(-7.30278e-21 0 0)
(-1.16609e-17 0 0)
(-1.44159e-16 0 0)
(1.08718e-17 -9.75778e-17 0)
(1.75089e-16 0 0)
(1.90538e-16 -1.82145e-16 0)
(-1.78482e-17 -4.35848e-16 0)
(-9.9282e-17 -2.2985e-16 0)
(5.00232e-14 2.1684e-18 0)
(7.17405e-10 -2.1684e-18 0)
(9.24541e-07 -4.38016e-16 0)
(0.00014107 4.34382e-15 0)
(0.00376845 -1.43899e-14 0)
(0.0278114 2.04431e-14 0)
(0.0900116 -1.55777e-14 0)
(0.183599 9.96639e-15 0)
(0.293811 -2.8524e-15 0)
(0.411836 6.04468e-16 0)
(0.535691 7.01183e-16 0)
(0.664405 -9.1591e-17 0)
(0.796958 -2.21875e-15 0)
(0.907285 5.26128e-16 0)
(0.950254 8.49774e-16 0)
(0.925364 2.01233e-16 0)
(0.928699 -3.46018e-16 0)
(0.933294 7.43118e-16 0)
(0.936194 -7.47676e-16 0)
(0.954826 -2.53384e-15 0)
(0.954588 -2.51354e-16 0)
(0.886451 -1.03218e-15 0)
(0.621209 -5.17412e-16 0)
(0.151378 4.63265e-16 0)
(0.0042204 1.71215e-15 0)
(8.93836e-06 2.12501e-16 0)
(1.04671e-09 -1.45283e-16 0)
(2.76378e-14 -9.64936e-17 0)
(8.73691e-17 -5.42099e-17 0)
(-7.28646e-18 0 0)
(-1.05546e-16 -5.20415e-17 0)
(8.50679e-17 -1.0842e-17 0)
(2.03239e-16 0 0)
(5.16427e-18 7.69781e-17 0)
(-1.90022e-16 0 0)
(-3.64254e-17 -1.51788e-17 0)
(7.56169e-17 -7.69781e-17 0)
(-2.77914e-17 -1.40946e-17 0)
(6.06272e-17 -2.27682e-17 0)
(1.7846e-16 0 0)
(2.37073e-17 0 0)
(5.54419e-17 2.1684e-18 0)
(1.82535e-16 0 0)
(4.70723e-17 0 0)
(-9.45952e-19 0 0)
(-4.09554e-17 0 0)
(-1.73728e-16 0 0)
(2.6685e-17 0 0)
(2.14764e-16 9.32411e-17 0)
(2.15004e-17 0 0)
(-1.93321e-16 0 0)
(-4.00598e-16 0 0)
(-2.39792e-16 0 0)
(-1.29472e-16 -1.6263e-17 0)
(1.03502e-17 -8.78201e-17 0)
(2.63395e-16 -9.32411e-17 0)
(3.4346e-16 0 0)
(9.61963e-17 0 0)
(-2.5128e-16 0 0)
(-3.92491e-16 5.74625e-17 0)
(-2.43429e-16 -9.43252e-17 0)
(-7.14665e-17 -6.50519e-17 0)
(-5.31257e-17 -1.65882e-16 0)
(6.07151e-17 1.99492e-16 0)
(6.02739e-17 0 0)
(-4.64329e-17 -3.25259e-17 0)
(-4.58584e-17 -2.40692e-16 0)
(-1.55011e-17 -3.03576e-17 0)
(7.6726e-18 0 0)
(1.28857e-16 0 0)
(3.74621e-17 1.34441e-16 0)
(-9.02729e-17 1.73472e-17 0)
(1.14573e-16 -2.1684e-18 0)
(4.04596e-16 0 0)
(3.34077e-17 0 0)
(-3.34362e-16 0 0)
(-4.36394e-17 -6.93887e-17 0)
(1.62681e-16 0 0)
(2.33509e-17 9.32411e-17 0)
(-1.94725e-16 3.68627e-17 0)
(-9.96596e-17 0 0)
(-2.28931e-17 0 0)
(5.75424e-18 0 0)
(1.86685e-16 0 0)
(4.17621e-18 9.32411e-17 0)
(-1.86946e-16 0 0)
(-1.91692e-17 0 0)
(7.1527e-19 0 0)
(-5.54513e-18 0 0)
(-2.19982e-18 0 0)
(1.25713e-18 0 0)
(-1.18665e-17 0 0)
(-2.59635e-19 0 0)
(-4.64763e-17 0 0)
(-1.84728e-16 -1.60461e-16 0)
(2.0515e-17 -3.46943e-16 0)
(2.19378e-16 -1.66967e-16 0)
(4.97906e-17 -2.1684e-18 0)
(-3.61292e-17 -1.56125e-16 0)
(4.66043e-17 -1.30104e-17 0)
(5.00539e-14 -9.54094e-17 0)
(7.17406e-10 9.75778e-17 0)
(9.24541e-07 -5.09574e-16 0)
(0.00014107 1.24481e-15 0)
(0.00376845 -6.91105e-15 0)
(0.0278114 8.34975e-15 0)
(0.0900116 -7.81755e-15 0)
(0.183599 2.04308e-15 0)
(0.293811 3.13666e-16 0)
(0.411836 9.97061e-16 0)
(0.535691 -4.70944e-17 0)
(0.664405 1.35909e-15 0)
(0.796958 3.34989e-16 0)
(0.907285 1.54481e-15 0)
(0.950254 1.91752e-15 0)
(0.925364 3.37351e-16 0)
(0.928699 4.06878e-17 0)
(0.933294 -3.58229e-16 0)
(0.936194 -1.70024e-15 0)
(0.954826 -1.14559e-15 0)
(0.954588 2.37033e-17 0)
(0.886451 -1.19723e-15 0)
(0.621209 1.21039e-15 0)
(0.151378 -1.81277e-15 0)
(0.0042204 9.55996e-16 0)
(8.93836e-06 -6.44008e-16 0)
(1.04671e-09 -8.99885e-17 0)
(2.77608e-14 -3.23091e-16 0)
(1.46919e-16 -8.78201e-17 0)
(2.63401e-17 0 0)
(-1.14796e-16 5.20415e-17 0)
(7.1408e-17 0 0)
(2.09025e-16 -8.56517e-17 0)
(3.67458e-18 -7.69781e-17 0)
(-1.98022e-16 -1.14925e-16 0)
(-4.47449e-17 -8.02307e-17 0)
(8.93352e-17 -2.23345e-16 0)
(-1.41681e-17 -1.20346e-16 0)
(1.06864e-16 -1.0842e-18 0)
(2.32714e-16 -8.45675e-17 0)
(9.24862e-17 -6.83045e-17 0)
(2.16027e-18 8.34833e-17 0)
(-5.5004e-19 -5.74625e-17 0)
(-2.43959e-18 -1.60461e-16 0)
(1.21295e-17 -1.39862e-16 0)
(7.8452e-17 -1.17093e-16 0)
(-2.0462e-17 -2.1684e-18 0)
(2.68567e-17 6.61361e-17 0)
(1.03946e-16 0 0)
(1.6414e-18 0 0)
(-1.73103e-16 0 0)
(-3.68495e-16 0 0)
(-3.71264e-16 4.33679e-17 0)
(-2.10445e-16 -1.16009e-16 0)
(8.20501e-17 -1.0842e-18 0)
(3.31967e-16 0 0)
(3.46465e-16 -1.6263e-17 0)
(1.70812e-16 -1.30104e-16 0)
(-1.18376e-16 4.01153e-17 0)
(-3.38433e-16 2.27682e-16 0)
(-3.53197e-16 1.25767e-16 0)
(-1.92814e-16 1.23599e-16 0)
(-1.04083e-16 9.43252e-17 0)
(3.29596e-16 4.66205e-16 0)
(1.08229e-16 1.84314e-16 0)
(-1.6313e-16 1.34441e-16 0)
(-2.2979e-16 -1.32272e-16 0)
(-3.63896e-17 2.1684e-18 0)
(7.32341e-17 0 0)
(2.60349e-16 2.14671e-16 0)
(6.2219e-17 4.09827e-16 0)
(-1.22e-16 2.23345e-16 0)
(1.39564e-16 1.10588e-16 0)
(2.82643e-16 1.30104e-16 0)
(3.06266e-17 -1.30104e-16 0)
(-2.24525e-16 -7.80623e-17 0)
(-2.63282e-17 -2.66713e-16 0)
(1.90185e-16 -7.15571e-17 0)
(4.13886e-17 -1.0842e-17 0)
(-2.18632e-16 2.49366e-16 0)
(-2.86009e-16 6.72203e-17 0)
(-8.09111e-17 0 0)
(3.91915e-17 0 0)
(2.56946e-16 0 0)
(1.21251e-17 -2.81892e-17 0)
(-2.28947e-16 0 0)
(-2.36408e-17 0 0)
(5.50527e-18 0 0)
(-6.31962e-17 0 0)
(-2.82301e-17 0 0)
(-6.75858e-19 0 0)
(-7.04691e-17 0 0)
(-3.20192e-18 0 0)
(-8.12291e-17 0 0)
(-3.23161e-16 8.67359e-18 0)
(2.17741e-17 2.1684e-17 0)
(3.38825e-16 0 0)
(5.84327e-17 0 0)
(-8.94643e-17 0 0)
(1.14975e-16 0 0)
(4.97752e-14 -2.64544e-16 0)
(7.17406e-10 6.61361e-16 0)
(9.24541e-07 -1.63931e-15 0)
(0.00014107 1.5224e-15 0)
(0.00376845 -1.6054e-15 0)
(0.0278114 1.37664e-15 0)
(0.0900116 -1.8645e-15 0)
(0.183599 -4.05821e-15 0)
(0.293811 7.00148e-16 0)
(0.411836 5.07878e-16 0)
(0.535691 -9.59329e-17 0)
(0.664405 1.51765e-15 0)
(0.796958 3.40461e-15 0)
(0.907285 2.76021e-15 0)
(0.950254 2.26827e-15 0)
(0.925364 4.20135e-16 0)
(0.928699 9.72747e-16 0)
(0.933294 -1.34617e-15 0)
(0.936194 -3.62075e-15 0)
(0.954826 3.20728e-16 0)
(0.954588 -5.19498e-16 0)
(0.886451 -5.85877e-16 0)
(0.621209 2.42541e-15 0)
(0.151378 -3.57759e-15 0)
(0.0042204 2.11399e-15 0)
(8.93836e-06 -2.55218e-15 0)
(1.04671e-09 -6.93887e-17 0)
(2.8082e-14 -1.33356e-16 0)
(2.25166e-16 -3.25259e-18 0)
(1.36163e-16 -9.21569e-17 0)
(3.38044e-17 1.0842e-17 0)
(-3.27824e-17 -9.54094e-17 0)
(7.74961e-17 -2.19008e-16 0)
(2.35875e-19 -1.5504e-16 0)
(-6.0672e-17 -2.54787e-16 0)
(-5.11877e-17 -1.12757e-16 0)
(9.20187e-17 -6.07151e-17 0)
(-1.16927e-17 -1.84314e-17 0)
(1.85856e-17 -7.58939e-17 0)
(1.54402e-16 -2.12503e-16 0)
(1.18461e-16 -2.21176e-16 0)
(6.98797e-18 -1.0842e-16 0)
(-1.05737e-16 -2.30934e-16 0)
(-4.1824e-18 -3.49112e-16 0)
(3.34326e-17 -3.18754e-16 0)
(1.48093e-16 -3.00323e-16 0)
(5.6524e-17 -1.53956e-16 0)
(5.52497e-17 -6.61361e-17 0)
(1.05556e-16 0 0)
(-9.85758e-18 0 0)
(-5.67537e-17 -6.72203e-17 0)
(-2.70902e-16 5.42099e-18 0)
(-3.94646e-16 1.89735e-16 0)
(-1.86096e-16 8.67359e-17 0)
(4.20304e-17 0 0)
(2.26688e-16 9.10727e-17 0)
(3.07495e-16 -1.45283e-16 0)
(1.57794e-16 -3.03576e-16 0)
(5.77495e-17 -9.10727e-17 0)
(-2.40407e-16 5.09573e-17 0)
(-3.14196e-16 2.2985e-16 0)
(-1.90803e-16 3.20923e-16 0)
(-2.93818e-16 2.81892e-16 0)
(5.37762e-16 2.49366e-16 0)
(1.6492e-16 1.04083e-16 0)
(-2.55525e-16 1.95156e-17 0)
(-3.24106e-16 1.38777e-16 0)
(-2.68611e-17 3.68627e-17 0)
(2.28433e-16 1.69135e-16 0)
(5.00178e-16 1.58293e-16 0)
(1.19178e-16 1.90819e-16 0)
(-3.05423e-16 1.86482e-16 0)
(2.28414e-16 3.66459e-16 0)
(-8.03226e-17 5.63783e-17 0)
(-2.0058e-16 -2.51534e-16 0)
(-1.58642e-16 4.81481e-34 0)
(-9.27029e-17 8.02307e-17 0)
(2.14586e-16 -2.1684e-18 0)
(2.72174e-16 -2.4286e-16 0)
(-4.35013e-17 6.72203e-17 0)
(-4.11353e-16 2.34187e-16 0)
(-1.45434e-16 5.85467e-17 0)
(8.89537e-17 1.45283e-16 0)
(-1.30542e-16 2.1684e-18 0)
(-1.17291e-16 -2.77555e-16 0)
(1.1155e-16 4.33679e-18 0)
(2.82398e-16 2.10334e-16 0)
(1.39025e-17 1.14925e-16 0)
(-2.42237e-16 2.38524e-17 0)
(-1.12509e-16 0 0)
(-1.66722e-17 0 0)
(-1.81748e-16 2.60208e-17 0)
(-1.95236e-17 -4.33679e-18 0)
(6.51851e-17 2.60208e-17 0)
(-1.13357e-16 2.08166e-16 0)
(6.54784e-17 3.88143e-16 0)
(5.10659e-17 1.2143e-16 0)
(-1.64866e-16 0 0)
(-1.5742e-16 -1.12757e-16 0)
(2.37904e-16 0 0)
(4.93902e-14 -9.75778e-17 0)
(7.17408e-10 -1.84964e-15 0)
(9.24541e-07 1.02782e-15 0)
(0.00014107 -2.04504e-15 0)
(0.00376845 2.99544e-15 0)
(0.0278114 -7.44494e-15 0)
(0.0900116 5.80197e-15 0)
(0.183599 -8.23459e-15 0)
(0.293811 4.10987e-15 0)
(0.411836 -1.2214e-15 0)
(0.535691 4.83153e-16 0)
(0.664405 7.64243e-16 0)
(0.796958 -8.54223e-16 0)
(0.907285 3.35693e-15 0)
(0.950254 2.7422e-15 0)
(0.925364 2.03262e-15 0)
(0.928699 7.60076e-16 0)
(0.933294 4.62618e-16 0)
(0.936194 -2.30206e-15 0)
(0.954826 4.18075e-16 0)
(0.954588 -1.50812e-15 0)
(0.886451 -3.0143e-16 0)
(0.621209 9.91099e-16 0)
(0.151378 3.60637e-16 0)
(0.0042204 1.20877e-15 0)
(8.93836e-06 -2.21283e-15 0)
(1.04671e-09 -6.61361e-17 0)
(2.77859e-14 -6.93887e-17 0)
(1.18919e-16 -7.26413e-17 0)
(2.1675e-16 -1.7564e-16 0)
(9.49055e-17 -1.46367e-16 0)
(-5.6792e-17 6.50519e-18 0)
(4.47945e-17 -5.52941e-17 0)
(2.3882e-18 -2.27682e-17 0)
(-2.88467e-17 -1.23599e-16 0)
(7.66622e-17 -2.1684e-17 0)
(2.19717e-17 3.79469e-17 0)
(-8.17342e-17 -6.61361e-17 0)
(-9.15388e-17 3.57785e-17 0)
(5.06946e-17 -8.99885e-17 0)
(1.59636e-16 -8.02307e-17 0)
(-9.13742e-18 -2.1684e-17 0)
(-1.51468e-16 -1.63714e-16 0)
(-1.34599e-18 -1.66967e-16 0)
(7.32998e-17 -1.36609e-16 0)
(2.24689e-16 -1.38777e-16 0)
(1.22246e-16 -2.26597e-16 0)
(1.64444e-16 -8.13149e-17 0)
(1.27184e-16 0 0)
(-9.59473e-18 -8.56517e-17 0)
(1.80409e-17 -2.28766e-16 0)
(-1.24233e-17 -1.0842e-17 0)
(-2.25725e-16 2.04913e-16 0)
(-2.24474e-16 2.86228e-16 0)
(-4.64291e-17 1.11672e-16 0)
(9.43414e-17 0 0)
(1.40027e-16 -1.16009e-16 0)
(2.97985e-16 -2.12503e-16 0)
(1.96708e-16 -6.93887e-17 0)
(-5.63934e-17 -8.67359e-17 0)
(-1.93246e-16 1.02999e-16 0)
(-2.59421e-16 1.50704e-16 0)
(-4.10911e-16 1.66967e-16 0)
(3.49112e-16 -4.33679e-18 0)
(1.00508e-16 2.55871e-16 0)
(-1.95528e-16 1.99492e-16 0)
(-1.19541e-16 3.83806e-16 0)
(1.12294e-16 2.49366e-16 0)
(3.38268e-16 4.70542e-16 0)
(3.17943e-16 3.40438e-16 0)
(2.86322e-17 1.23599e-16 0)
(-1.20481e-16 1.97324e-16 0)
(-1.22634e-16 1.51788e-17 0)
(-2.60874e-16 -2.58039e-16 0)
(-2.88482e-17 -3.25259e-17 0)
(-1.86777e-16 2.38524e-16 0)
(-2.92598e-17 4.38016e-16 0)
(2.11157e-16 1.99492e-16 0)
(9.3193e-17 -5.85467e-17 0)
(4.55399e-17 1.66967e-16 0)
(-2.27398e-16 4.40184e-16 0)
(-4.72658e-17 2.60208e-16 0)
(8.66429e-17 4.18501e-16 0)
(-1.49596e-16 2.1684e-16 0)
(-1.32834e-16 6.28835e-17 0)
(1.37246e-16 2.23345e-16 0)
(3.61764e-16 5.35594e-16 0)
(-4.76015e-18 3.77301e-16 0)
(-3.68307e-16 2.27682e-16 0)
(-1.90304e-16 2.81892e-17 0)
(-3.5032e-17 6.50519e-17 0)
(-2.17904e-16 1.82145e-16 0)
(-7.92877e-17 -5.20415e-17 0)
(1.675e-16 0 0)
(1.06434e-16 0 0)
(1.93399e-16 1.7564e-16 0)
(-2.92716e-17 3.94648e-16 0)
(-2.18198e-16 2.10334e-16 0)
(1.40988e-17 1.10588e-16 0)
(2.1943e-16 4.33679e-17 0)
(4.9451e-14 3.14417e-16 0)
(7.17403e-10 -2.44378e-15 0)
(9.24541e-07 4.0549e-15 0)
(0.00014107 -7.29102e-15 0)
(0.00376845 9.69113e-15 0)
(0.0278114 -2.1923e-14 0)
(0.0900116 1.43913e-14 0)
(0.183599 -1.10362e-14 0)
(0.293811 4.83242e-15 0)
(0.411836 -4.65347e-15 0)
(0.535691 -8.26768e-16 0)
(0.664405 1.31182e-15 0)
(0.796958 -1.70845e-16 0)
(0.907285 2.11926e-15 0)
(0.950254 1.54928e-15 0)
(0.925364 1.42532e-15 0)
(0.928699 -9.64199e-17 0)
(0.933294 7.99068e-16 0)
(0.936194 -7.61791e-16 0)
(0.954826 -5.4552e-16 0)
(0.954588 -2.78563e-15 0)
(0.886451 2.64282e-16 0)
(0.621209 -1.96961e-15 0)
(0.151378 3.91233e-15 0)
(0.0042204 -9.41953e-16 0)
(8.93836e-06 1.66531e-15 0)
(1.04671e-09 -3.9248e-16 0)
(2.80523e-14 -2.51534e-16 0)
(1.25271e-16 -5.63783e-17 0)
(9.81869e-17 7.58939e-18 0)
(1.97193e-16 -9.43252e-17 0)
(5.62621e-17 0 0)
(-1.18139e-16 1.12757e-16 0)
(-4.74788e-17 2.7105e-17 0)
(-6.18686e-18 1.27935e-16 0)
(9.93625e-17 2.38524e-17 0)
(1.62057e-17 -6.50519e-17 0)
(-8.80516e-17 3.57785e-17 0)
(1.32313e-17 1.45283e-16 0)
(1.59764e-16 1.05167e-16 0)
(8.8318e-17 0 0)
(-7.61179e-17 -8.89043e-17 0)
(-6.86887e-17 6.39677e-17 0)
(7.89542e-17 1.34441e-16 0)
(-2.10632e-22 3.25259e-17 0)
(4.01474e-17 6.28835e-17 0)
(1.59229e-16 -5.20415e-17 0)
(2.33502e-16 0 0)
(4.13864e-17 0 0)
(-1.279e-16 -1.47451e-16 0)
(3.86567e-17 -4.66205e-17 0)
(1.53044e-16 0 0)
(-2.96943e-17 -1.40946e-17 0)
(-1.8604e-16 1.44198e-16 0)
(-1.26414e-16 9.75778e-18 0)
(5.82603e-17 3.68627e-17 0)
(1.15766e-16 1.16009e-16 0)
(2.31929e-16 5.85467e-17 0)
(1.21011e-16 -1.30104e-16 0)
(-1.45557e-16 -1.89735e-16 0)
(-2.79586e-16 -2.49366e-17 0)
(-2.19659e-16 0 0)
(-3.20923e-16 5.20415e-17 0)
(5.63783e-16 -2.27682e-16 0)
(2.02833e-16 -1.01915e-16 0)
(-1.69076e-16 -6.28835e-17 0)
(-1.53292e-16 1.25767e-16 0)
(1.6766e-16 6.72203e-17 0)
(4.36495e-16 1.73472e-16 0)
(1.03052e-16 -2.38524e-17 0)
(-1.06632e-16 -2.86228e-16 0)
(-3.44479e-16 -1.7564e-16 0)
(-4.00492e-16 -3.59954e-16 0)
(-6.0804e-17 -5.20415e-17 0)
(1.83795e-16 2.81892e-16 0)
(-1.44686e-17 8.67359e-17 0)
(-2.1365e-16 2.55871e-16 0)
(-2.73883e-17 -4.33679e-18 0)
(2.75136e-16 -3.46943e-17 0)
(1.57783e-16 -1.36609e-16 0)
(-3.34276e-17 5.63783e-17 0)
(1.61236e-18 4.33679e-18 0)
(2.6372e-17 4.77047e-17 0)
(-1.59159e-16 -1.36609e-16 0)
(-1.25515e-16 4.33679e-18 0)
(1.5314e-16 3.90311e-17 0)
(2.05588e-16 1.60461e-16 0)
(-1.58728e-16 8.67359e-18 0)
(-5.65516e-16 2.1684e-18 0)
(-2.13346e-16 0 0)
(1.50673e-16 0 0)
(-4.58582e-17 -2.60208e-17 0)
(-3.07129e-16 -2.79723e-16 0)
(-1.71808e-17 -2.1684e-17 0)
(1.85995e-16 0 0)
(4.90229e-16 0 0)