/*--------------------------------*- C++ -*----------------------------------*\
| =========                 |                                                 |
| \\      /  F ield         | OpenFOAM: The Open Source CFD Toolbox           |
|  \\    /   O peration     | Version:  4.1                                   |
|   \\  /    A nd           | Web:      www.OpenFOAM.org                      |
|    \\/     M anipulation  |                                                 |
\*---------------------------------------------------------------------------*/
FoamFile
{
    version     2.0;
    format      ascii;
    class       volVectorField;
    location    "0.48";
    object      U;
}
// * * * * * * * * * * * * * * * * * * * * * * * * * * * * * * * * * * * * * //

dimensions      [0 1 -1 0 0 0 0];

internalField   nonuniform List<vector> 
10000
(
(0 0 0)
(2.25473e-16 0 0)
(3.20737e-16 0 0)
(1.04547e-16 1.60461e-16 0)
(-1.21112e-16 0 0)
(-3.18526e-16 0 0)
(-3.06147e-16 0 0)
(-7.255e-17 0 0)
(-6.86871e-19 0 0)
(2.64609e-16 1.58293e-16 0)
(5.33027e-16 0 0)
(2.01399e-16 -1.56125e-16 0)
(-1.37065e-16 0 0)
(-3.23846e-17 0 0)
(6.17813e-16 0 0)
(9.09888e-12 5.03068e-16 0)
(2.11623e-08 -2.38524e-17 0)
(5.78329e-06 3.10733e-15 0)
(0.000263791 1.12782e-15 0)
(0.00301654 1.33175e-14 0)
(0.0132646 6.7059e-15 0)
(0.0325901 5.06365e-15 0)
(0.0579377 -2.80182e-15 0)
(0.086298 1.24746e-14 0)
(0.116145 -3.12132e-15 0)
(0.14683 5.48345e-15 0)
(0.178061 -2.37374e-14 0)
(0.209682 -1.50051e-14 0)
(0.241596 -4.835e-16 0)
(0.27374 1.86344e-14 0)
(0.306071 8.56851e-15 0)
(0.338558 3.23141e-14 0)
(0.371181 2.02061e-14 0)
(0.403926 4.86426e-14 0)
(0.436784 -2.7108e-14 0)
(0.469751 3.85584e-14 0)
(0.502825 2.25018e-14 0)
(0.536008 1.68708e-14 0)
(0.569302 -2.81461e-14 0)
(0.602709 7.50504e-15 0)
(0.636228 -1.44393e-14 0)
(0.669856 3.17235e-14 0)
(0.703582 -2.73789e-14 0)
(0.737382 2.67072e-14 0)
(0.771216 1.11418e-13 0)
(0.804999 1.23581e-13 0)
(0.838533 -1.07602e-13 0)
(0.871228 4.1864e-13 0)
(0.901303 -9.95369e-15 0)
(0.924169 -1.94007e-13 0)
(0.933693 3.62806e-14 0)
(0.931563 6.71013e-14 0)
(0.925773 7.62967e-14 0)
(0.92704 6.88906e-14 0)
(0.927604 4.79142e-14 0)
(0.927808 3.43847e-14 0)
(0.927997 1.54664e-14 0)
(0.928167 5.90765e-15 0)
(0.92842 2.80365e-15 0)
(0.92842 8.73959e-15 0)
(0.928214 1.53432e-14 0)
(0.928131 1.72479e-14 0)
(0.928178 1.63345e-14 0)
(0.928202 1.96175e-14 0)
(0.928154 1.53088e-14 0)
(0.928082 1.02124e-14 0)
(0.928011 9.04978e-15 0)
(0.927951 5.2375e-15 0)
(0.927926 2.75634e-15 0)
(0.927961 6.90617e-15 0)
(0.928074 6.49217e-15 0)
(0.928421 5.98327e-15 0)
(0.928858 -7.65718e-15 0)
(0.928638 -1.65391e-14 0)
(0.928061 -3.08827e-14 0)
(0.929126 -3.88948e-14 0)
(0.928788 -2.97471e-14 0)
(0.926516 -1.1941e-14 0)
(0.92603 -4.40377e-15 0)
(0.92591 -1.92997e-15 0)
(0.9259 -3.02913e-15 0)
(0.926176 -2.76435e-15 0)
(0.926968 -2.40042e-15 0)
(0.928135 -6.03791e-15 0)
(0.928673 -1.07964e-14 0)
(0.928399 -1.38333e-14 0)
(0.927941 -1.36522e-14 0)
(0.927277 -1.40495e-14 0)
(0.926154 -1.21993e-14 0)
(0.922563 -1.06457e-14 0)
(0.904068 -7.23415e-15 0)
(0.805555 -3.43479e-15 0)
(0.458976 -5.39746e-16 0)
(0.0623273 1.85185e-16 0)
(0.000806103 4.55036e-17 0)
(7.21736e-07 2.71049e-17 0)
(3.31266e-11 4.31511e-16 0)
(4.25755e-16 2.74302e-16 0)
(-4.27779e-16 1.56125e-16 0)
(-2.88397e-16 2.53702e-16 0)
(0 0 0)
(2.40283e-16 0 0)
(3.23971e-16 1.38777e-16 0)
(1.03068e-16 3.44775e-16 0)
(-1.21076e-16 1.30104e-16 0)
(-3.24698e-16 2.68881e-16 0)
(-3.404e-16 5.63783e-17 0)
(-7.94089e-17 0 0)
(-3.73161e-18 0 0)
(2.55523e-16 0 0)
(5.62571e-16 0 0)
(2.09413e-16 0 0)
(-1.21306e-16 0 0)
(-1.60778e-17 2.1684e-18 0)
(6.6717e-16 1.30104e-16 0)
(9.09959e-12 1.043e-15 0)
(2.11623e-08 1.17527e-15 0)
(5.78329e-06 9.46076e-15 0)
(0.000263791 1.44664e-15 0)
(0.00301654 3.16004e-14 0)
(0.0132646 -2.99112e-15 0)
(0.0325901 5.03801e-16 0)
(0.0579377 5.89407e-15 0)
(0.086298 1.98508e-14 0)
(0.116145 3.26739e-15 0)
(0.14683 -6.09204e-15 0)
(0.178061 -1.1136e-14 0)
(0.209682 1.80285e-14 0)
(0.241596 8.10597e-15 0)
(0.27374 -1.17295e-14 0)
(0.306071 1.79926e-14 0)
(0.338558 2.20227e-14 0)
(0.371181 6.99073e-15 0)
(0.403926 3.28912e-14 0)
(0.436784 -1.21642e-14 0)
(0.469751 3.80894e-14 0)
(0.502825 1.10852e-14 0)
(0.536008 6.41741e-15 0)
(0.569302 6.65572e-15 0)
(0.602709 2.41379e-14 0)
(0.636228 -7.21965e-15 0)
(0.669856 2.53027e-14 0)
(0.703582 -8.05477e-15 0)
(0.737382 5.09564e-14 0)
(0.771216 5.11358e-14 0)
(0.804999 6.71492e-14 0)
(0.838533 -2.73322e-14 0)
(0.871228 1.99458e-13 0)
(0.901303 1.00887e-14 0)
(0.924169 -4.52522e-14 0)
(0.933693 4.38151e-14 0)
(0.931563 5.81178e-14 0)
(0.925773 5.70892e-14 0)
(0.92704 5.4812e-14 0)
(0.927604 4.42758e-14 0)
(0.927808 3.55071e-14 0)
(0.927997 1.59023e-14 0)
(0.928167 7.66852e-15 0)
(0.92842 6.02529e-15 0)
(0.92842 8.95764e-15 0)
(0.928214 1.43858e-14 0)
(0.928131 1.95923e-14 0)
(0.928178 2.62002e-14 0)
(0.928202 2.37857e-14 0)
(0.928154 1.76147e-14 0)
(0.928082 1.35741e-14 0)
(0.928011 1.15892e-14 0)
(0.927951 5.84061e-15 0)
(0.927926 4.01189e-15 0)
(0.927961 7.71546e-15 0)
(0.928074 2.3443e-15 0)
(0.928421 1.72499e-15 0)
(0.928858 -9.46343e-17 0)
(0.928638 -6.69599e-15 0)
(0.928061 -1.53113e-14 0)
(0.929126 -2.2295e-14 0)
(0.928788 -1.64944e-14 0)
(0.926516 -2.65738e-15 0)
(0.92603 8.79417e-17 0)
(0.92591 1.08477e-15 0)
(0.9259 3.37073e-15 0)
(0.926176 3.45429e-15 0)
(0.926968 3.16744e-15 0)
(0.928135 -9.02493e-16 0)
(0.928673 -6.66861e-15 0)
(0.928399 -9.98977e-15 0)
(0.927941 -7.20617e-15 0)
(0.927277 -5.95344e-15 0)
(0.926154 -8.4348e-15 0)
(0.922563 -5.78116e-15 0)
(0.904068 -6.93689e-15 0)
(0.805555 -6.82846e-15 0)
(0.458976 -2.22028e-16 0)
(0.0623273 -1.49177e-16 0)
(0.000806103 5.87213e-16 0)
(7.21736e-07 -1.0083e-16 0)
(3.31264e-11 9.41084e-16 0)
(3.37097e-16 4.84637e-16 0)
(-5.3983e-16 3.5887e-16 0)
(-4.94394e-16 4.58616e-16 0)
(0 0 0)
(2.58788e-16 0 0)
(5.31225e-16 0 0)
(1.18932e-16 1.0842e-16 0)
(-3.54849e-16 3.44775e-16 0)
(-3.26304e-16 6.00646e-16 0)
(-3.61888e-16 2.79723e-16 0)
(-6.18885e-17 0 0)
(-1.44236e-17 0 0)
(2.5661e-16 0 0)
(5.88951e-16 0 0)
(2.3091e-16 2.1684e-18 0)
(-1.09049e-16 1.64798e-16 0)
(1.89135e-17 3.68627e-16 0)
(7.9639e-16 2.1684e-16 0)
(9.10078e-12 2.2985e-16 0)
(2.11623e-08 4.31294e-15 0)
(5.78329e-06 1.42703e-14 0)
(0.000263791 1.78282e-15 0)
(0.00301654 4.53657e-14 0)
(0.0132646 -1.05128e-14 0)
(0.0325901 2.28494e-16 0)
(0.0579377 1.08041e-14 0)
(0.086298 2.36387e-14 0)
(0.116145 1.31474e-14 0)
(0.14683 -3.98472e-15 0)
(0.178061 -9.26379e-15 0)
(0.209682 2.45714e-14 0)
(0.241596 1.32522e-14 0)
(0.27374 -1.93778e-14 0)
(0.306071 2.03486e-14 0)
(0.338558 1.95652e-14 0)
(0.371181 6.45252e-15 0)
(0.403926 2.84128e-14 0)
(0.436784 -6.60158e-15 0)
(0.469751 3.68152e-14 0)
(0.502825 8.54258e-15 0)
(0.536008 2.32045e-15 0)
(0.569302 1.66366e-14 0)
(0.602709 2.54609e-14 0)
(0.636228 -4.17531e-15 0)
(0.669856 1.94474e-14 0)
(0.703582 2.99807e-15 0)
(0.737382 5.93819e-14 0)
(0.771216 3.14493e-14 0)
(0.804999 4.83231e-14 0)
(0.838533 -3.91658e-15 0)
(0.871228 1.17262e-13 0)
(0.901303 3.3853e-14 0)
(0.924169 -1.15029e-14 0)
(0.933693 4.04367e-14 0)
(0.931563 4.8762e-14 0)
(0.925773 4.83952e-14 0)
(0.92704 4.6774e-14 0)
(0.927604 3.32183e-14 0)
(0.927808 2.57694e-14 0)
(0.927997 1.08668e-14 0)
(0.928167 7.58991e-15 0)
(0.92842 8.22027e-15 0)
(0.92842 8.74309e-15 0)
(0.928214 1.68641e-14 0)
(0.928131 1.91751e-14 0)
(0.928178 2.68604e-14 0)
(0.928202 2.0243e-14 0)
(0.928154 1.60565e-14 0)
(0.928082 1.28961e-14 0)
(0.928011 1.05141e-14 0)
(0.927951 4.49534e-15 0)
(0.927926 3.4328e-15 0)
(0.927961 8.04867e-15 0)
(0.928074 4.06242e-17 0)
(0.928421 -3.33821e-16 0)
(0.928858 1.47031e-15 0)
(0.928638 -6.58758e-15 0)
(0.928061 -9.00631e-15 0)
(0.929126 -1.24448e-14 0)
(0.928788 -5.24756e-15 0)
(0.926516 3.6573e-15 0)
(0.92603 3.34796e-15 0)
(0.92591 4.90976e-15 0)
(0.9259 7.47909e-15 0)
(0.926176 4.88391e-15 0)
(0.926968 5.13212e-15 0)
(0.928135 -5.417e-17 0)
(0.928673 -6.20005e-15 0)
(0.928399 -8.84124e-15 0)
(0.927941 -4.80377e-15 0)
(0.927277 -7.06738e-16 0)
(0.926154 -5.41281e-15 0)
(0.922563 -1.76763e-15 0)
(0.904068 -1.98575e-15 0)
(0.805555 -2.14287e-15 0)
(0.458976 2.8916e-15 0)
(0.0623273 4.40328e-16 0)
(0.000806103 1.28602e-15 0)
(7.21736e-07 -1.9624e-16 0)
(3.31253e-11 1.01915e-16 0)
(2.15872e-16 6.93887e-16 0)
(-6.53113e-16 5.61615e-16 0)
(-7.05813e-16 6.6895e-16 0)
(-2.1684e-18 -2.1684e-18 0)
(2.7954e-16 -2.1684e-18 0)
(5.91483e-16 -2.1684e-18 0)
(1.86009e-16 3.90311e-17 0)
(-3.04013e-16 2.86228e-16 0)
(-6.91764e-16 2.27682e-16 0)
(-3.80014e-16 -2.1684e-18 0)
(-3.13524e-17 -2.1684e-18 0)
(-2.86428e-17 0 0)
(2.07125e-16 0 0)
(4.34735e-16 -4.33679e-18 0)
(2.62846e-16 -2.81892e-17 0)
(1.7803e-16 3.49112e-16 0)
(1.76761e-16 7.15571e-16 0)
(7.69552e-16 3.62122e-16 0)
(9.09977e-12 2.88397e-16 0)
(2.11623e-08 4.77698e-15 0)
(5.78329e-06 1.31471e-14 0)
(0.000263791 3.44635e-15 0)
(0.00301654 4.94245e-14 0)
(0.0132646 -1.65038e-14 0)
(0.0325901 1.71983e-15 0)
(0.0579377 1.17096e-14 0)
(0.086298 2.14297e-14 0)
(0.116145 1.64363e-14 0)
(0.14683 -2.64214e-15 0)
(0.178061 -1.07406e-14 0)
(0.209682 2.68168e-14 0)
(0.241596 1.83276e-14 0)
(0.27374 -2.01295e-14 0)
(0.306071 1.99187e-14 0)
(0.338558 1.88504e-14 0)
(0.371181 5.9263e-15 0)
(0.403926 2.74616e-14 0)
(0.436784 -3.80438e-15 0)
(0.469751 3.40405e-14 0)
(0.502825 5.42343e-15 0)
(0.536008 1.62309e-15 0)
(0.569302 2.23967e-14 0)
(0.602709 2.28454e-14 0)
(0.636228 1.2411e-15 0)
(0.669856 1.3958e-14 0)
(0.703582 1.08486e-14 0)
(0.737382 5.94157e-14 0)
(0.771216 1.98435e-14 0)
(0.804999 4.26869e-14 0)
(0.838533 2.03746e-15 0)
(0.871228 7.63916e-14 0)
(0.901303 3.40784e-14 0)
(0.924169 4.84071e-15 0)
(0.933693 3.67675e-14 0)
(0.931563 4.17559e-14 0)
(0.925773 4.49654e-14 0)
(0.92704 3.95705e-14 0)
(0.927604 2.94332e-14 0)
(0.927808 2.26367e-14 0)
(0.927997 1.23929e-14 0)
(0.928167 1.21596e-14 0)
(0.92842 9.81198e-15 0)
(0.92842 9.47906e-15 0)
(0.928214 1.43415e-14 0)
(0.928131 1.54337e-14 0)
(0.928178 2.6615e-14 0)
(0.928202 1.73338e-14 0)
(0.928154 1.21871e-14 0)
(0.928082 1.03514e-14 0)
(0.928011 1.26366e-14 0)
(0.927951 6.74783e-15 0)
(0.927926 6.19794e-15 0)
(0.927961 7.17783e-15 0)
(0.928074 -6.82907e-16 0)
(0.928421 1.53895e-15 0)
(0.928858 6.61866e-15 0)
(0.928638 -3.79402e-15 0)
(0.928061 8.31374e-16 0)
(0.929126 -8.95877e-15 0)
(0.928788 2.25789e-15 0)
(0.926516 4.05676e-15 0)
(0.92603 5.19422e-15 0)
(0.92591 7.14203e-15 0)
(0.9259 9.7598e-15 0)
(0.926176 8.24125e-15 0)
(0.926968 7.54995e-15 0)
(0.928135 3.65341e-15 0)
(0.928673 -3.15387e-15 0)
(0.928399 -3.75171e-15 0)
(0.927941 -1.35808e-15 0)
(0.927277 2.45955e-16 0)
(0.926154 -2.52717e-15 0)
(0.922563 -2.92387e-16 0)
(0.904068 -7.4992e-16 0)
(0.805555 -2.03305e-16 0)
(0.458976 -3.22203e-16 0)
(0.0623273 3.4753e-15 0)
(0.000806103 3.62079e-15 0)
(7.21736e-07 1.365e-15 0)
(3.31273e-11 3.3068e-16 0)
(1.15115e-16 4.21753e-16 0)
(-8.13806e-16 3.25259e-16 0)
(-9.68189e-16 4.10911e-16 0)
(-2.1684e-18 2.1684e-18 0)
(3.00414e-16 2.1684e-18 0)
(6.41352e-16 2.1684e-18 0)
(1.97856e-16 1.6263e-16 0)
(-6.39162e-16 -1.60461e-16 0)
(-6.65083e-16 -5.44268e-16 0)
(-3.17982e-16 -2.40692e-16 0)
(1.28343e-17 2.1684e-18 0)
(-3.42181e-17 0 0)
(2.20518e-16 -2.1684e-18 0)
(4.61508e-16 1.32272e-16 0)
(2.80706e-16 3.14417e-16 0)
(3.62817e-16 1.6263e-16 0)
(1.811e-16 3.42607e-16 0)
(5.64723e-16 1.58293e-16 0)
(9.10126e-12 8.02307e-16 0)
(2.11623e-08 5.07838e-15 0)
(5.78329e-06 9.28078e-15 0)
(0.000263791 2.38577e-16 0)
(0.00301654 4.55136e-14 0)
(0.0132646 -2.31132e-14 0)
(0.0325901 6.26853e-15 0)
(0.0579377 1.04134e-14 0)
(0.086298 1.47338e-14 0)
(0.116145 1.51804e-14 0)
(0.14683 -1.39176e-15 0)
(0.178061 -1.06256e-14 0)
(0.209682 2.53623e-14 0)
(0.241596 2.00479e-14 0)
(0.27374 -2.08001e-14 0)
(0.306071 1.63196e-14 0)
(0.338558 1.29265e-14 0)
(0.371181 4.13477e-15 0)
(0.403926 2.43699e-14 0)
(0.436784 -4.68587e-15 0)
(0.469751 3.08428e-14 0)
(0.502825 1.26118e-15 0)
(0.536008 -4.04466e-16 0)
(0.569302 2.64664e-14 0)
(0.602709 2.12449e-14 0)
(0.636228 6.95247e-15 0)
(0.669856 9.14777e-15 0)
(0.703582 1.53702e-14 0)
(0.737382 5.08192e-14 0)
(0.771216 1.62266e-14 0)
(0.804999 3.43581e-14 0)
(0.838533 -2.60911e-15 0)
(0.871228 5.94329e-14 0)
(0.901303 2.85874e-14 0)
(0.924169 1.29073e-14 0)
(0.933693 3.11206e-14 0)
(0.931563 3.04221e-14 0)
(0.925773 3.31258e-14 0)
(0.92704 2.77487e-14 0)
(0.927604 2.3701e-14 0)
(0.927808 1.95173e-14 0)
(0.927997 1.23324e-14 0)
(0.928167 1.41859e-14 0)
(0.92842 8.24e-15 0)
(0.92842 8.89907e-15 0)
(0.928214 1.27303e-14 0)
(0.928131 1.54722e-14 0)
(0.928178 2.54151e-14 0)
(0.928202 1.21476e-14 0)
(0.928154 1.02522e-14 0)
(0.928082 6.61554e-15 0)
(0.928011 1.12909e-14 0)
(0.927951 9.06648e-15 0)
(0.927926 4.00374e-15 0)
(0.927961 5.32909e-15 0)
(0.928074 -2.56283e-15 0)
(0.928421 2.32549e-15 0)
(0.928858 7.66783e-15 0)
(0.928638 -4.50523e-15 0)
(0.928061 9.58434e-15 0)
(0.929126 -8.48801e-15 0)
(0.928788 6.80389e-15 0)
(0.926516 -4.58577e-16 0)
(0.92603 7.10219e-15 0)
(0.92591 7.66179e-15 0)
(0.9259 1.08657e-14 0)
(0.926176 6.55976e-15 0)
(0.926968 7.37381e-15 0)
(0.928135 8.72239e-15 0)
(0.928673 1.96511e-15 0)
(0.928399 2.72513e-15 0)
(0.927941 1.83866e-15 0)
(0.927277 1.13946e-15 0)
(0.926154 -5.98473e-16 0)
(0.922563 -8.04959e-16 0)
(0.904068 -1.83868e-15 0)
(0.805555 5.86262e-16 0)
(0.458976 -5.13805e-15 0)
(0.0623273 7.59155e-15 0)
(0.000806103 7.14623e-15 0)
(7.21736e-07 1.02131e-15 0)
(3.31253e-11 6.84129e-16 0)
(5.47247e-17 -1.16009e-16 0)
(-9.70839e-16 -2.49366e-17 0)
(-1.15901e-15 -1.56125e-16 0)
(1.73472e-17 0 0)
(3.06889e-16 -4.11995e-17 0)
(3.79381e-16 -2.9707e-16 0)
(-9.94343e-17 -5.46436e-16 0)
(-7.24922e-16 -6.37509e-16 0)
(-3.75181e-16 -2.88397e-16 0)
(-1.56563e-17 -2.1684e-17 0)
(9.05487e-17 0 0)
(-2.30497e-17 0 0)
(2.33565e-16 1.04083e-16 0)
(4.98928e-16 4.14164e-16 0)
(2.91987e-16 6.07151e-16 0)
(-7.86506e-18 3.10081e-16 0)
(-4.12869e-17 -4.11995e-17 0)
(7.01782e-16 -2.60208e-17 0)
(9.10175e-12 -5.009e-16 0)
(2.11623e-08 3.12466e-15 0)
(5.78329e-06 4.43873e-15 0)
(0.000263791 -3.19693e-15 0)
(0.00301654 3.51395e-14 0)
(0.0132646 -1.81331e-14 0)
(0.0325901 5.64435e-15 0)
(0.0579377 6.53302e-15 0)
(0.086298 9.72061e-15 0)
(0.116145 1.05529e-14 0)
(0.14683 1.10407e-15 0)
(0.178061 -1.18346e-14 0)
(0.209682 2.05779e-14 0)
(0.241596 1.69399e-14 0)
(0.27374 -1.88076e-14 0)
(0.306071 1.57723e-14 0)
(0.338558 8.15277e-15 0)
(0.371181 3.08684e-15 0)
(0.403926 2.29832e-14 0)
(0.436784 -3.66436e-15 0)
(0.469751 2.47998e-14 0)
(0.502825 -1.57225e-16 0)
(0.536008 -1.49931e-16 0)
(0.569302 2.74861e-14 0)
(0.602709 1.80366e-14 0)
(0.636228 1.07926e-14 0)
(0.669856 5.90077e-15 0)
(0.703582 1.69908e-14 0)
(0.737382 3.87131e-14 0)
(0.771216 1.58593e-14 0)
(0.804999 2.37999e-14 0)
(0.838533 -2.63938e-15 0)
(0.871228 5.0763e-14 0)
(0.901303 2.25228e-14 0)
(0.924169 1.54512e-14 0)
(0.933693 2.52669e-14 0)
(0.931563 2.47928e-14 0)
(0.925773 2.33257e-14 0)
(0.92704 2.16409e-14 0)
(0.927604 1.84848e-14 0)
(0.927808 1.42698e-14 0)
(0.927997 8.74952e-15 0)
(0.928167 1.08392e-14 0)
(0.92842 3.46835e-15 0)
(0.92842 6.67844e-15 0)
(0.928214 9.38358e-15 0)
(0.928131 1.45363e-14 0)
(0.928178 2.01714e-14 0)
(0.928202 7.47945e-15 0)
(0.928154 8.83948e-15 0)
(0.928082 4.4005e-15 0)
(0.928011 7.19051e-15 0)
(0.927951 7.01695e-15 0)
(0.927926 1.89684e-15 0)
(0.927961 4.07786e-15 0)
(0.928074 3.70521e-16 0)
(0.928421 2.10795e-15 0)
(0.928858 6.23111e-15 0)
(0.928638 -3.1152e-15 0)
(0.928061 1.12408e-14 0)
(0.929126 -3.2696e-15 0)
(0.928788 5.38541e-15 0)
(0.926516 -1.50271e-15 0)
(0.92603 3.57887e-15 0)
(0.92591 5.26141e-15 0)
(0.9259 7.34605e-15 0)
(0.926176 4.32119e-15 0)
(0.926968 5.42756e-15 0)
(0.928135 8.48016e-15 0)
(0.928673 2.37702e-15 0)
(0.928399 4.66706e-15 0)
(0.927941 5.43843e-16 0)
(0.927277 4.15419e-15 0)
(0.926154 9.75327e-16 0)
(0.922563 -3.63563e-17 0)
(0.904068 1.8444e-15 0)
(0.805555 2.01334e-15 0)
(0.458976 -3.77598e-15 0)
(0.0623273 5.61933e-15 0)
(0.000806103 4.95014e-15 0)
(7.21736e-07 -7.91464e-16 0)
(3.31256e-11 -5.20415e-16 0)
(-5.01456e-17 -2.54787e-16 0)
(-8.19146e-16 -2.03829e-16 0)
(-9.30242e-16 -3.10081e-16 0)
(8.89043e-17 0 0)
(3.57055e-16 -2.55871e-16 0)
(4.45041e-17 -6.33172e-16 0)
(-1.88472e-16 -1.01264e-15 0)
(-3.96055e-16 -8.02307e-16 0)
(-5.55953e-17 -4.07659e-16 0)
(2.98923e-16 -3.90311e-17 0)
(2.12245e-16 3.90311e-17 0)
(1.13061e-17 0 0)
(2.45808e-16 0 0)
(4.34969e-16 1.40946e-16 0)
(4.93428e-17 3.18754e-16 0)
(-2.31031e-16 5.63783e-17 0)
(-1.20219e-16 -5.20415e-17 0)
(6.12489e-16 0 0)
(9.10012e-12 -4.31511e-16 0)
(2.11623e-08 6.09319e-16 0)
(5.78329e-06 -2.02096e-15 0)
(0.000263791 -2.25997e-15 0)
(0.00301654 1.69393e-14 0)
(0.0132646 -5.82435e-15 0)
(0.0325901 6.2507e-15 0)
(0.0579377 6.29954e-15 0)
(0.086298 6.75425e-15 0)
(0.116145 3.05428e-15 0)
(0.14683 4.21094e-15 0)
(0.178061 -1.18889e-14 0)
(0.209682 1.89999e-14 0)
(0.241596 1.2603e-14 0)
(0.27374 -1.55097e-14 0)
(0.306071 1.70536e-14 0)
(0.338558 8.1979e-15 0)
(0.371181 1.21584e-15 0)
(0.403926 2.31021e-14 0)
(0.436784 -1.14561e-16 0)
(0.469751 1.89225e-14 0)
(0.502825 1.93066e-15 0)
(0.536008 7.13046e-16 0)
(0.569302 2.50223e-14 0)
(0.602709 1.44636e-14 0)
(0.636228 9.58503e-15 0)
(0.669856 6.16179e-15 0)
(0.703582 1.72716e-14 0)
(0.737382 2.79277e-14 0)
(0.771216 1.89594e-14 0)
(0.804999 1.71701e-14 0)
(0.838533 1.24925e-15 0)
(0.871228 4.63667e-14 0)
(0.901303 1.36086e-14 0)
(0.924169 1.47642e-14 0)
(0.933693 2.62827e-14 0)
(0.931563 2.66879e-14 0)
(0.925773 1.98392e-14 0)
(0.92704 1.78689e-14 0)
(0.927604 1.53459e-14 0)
(0.927808 1.01813e-14 0)
(0.927997 8.44092e-15 0)
(0.928167 7.7624e-15 0)
(0.92842 4.39282e-15 0)
(0.92842 8.43336e-15 0)
(0.928214 7.16775e-15 0)
(0.928131 1.23586e-14 0)
(0.928178 1.37255e-14 0)
(0.928202 7.98514e-15 0)
(0.928154 7.44046e-15 0)
(0.928082 4.99928e-15 0)
(0.928011 4.33842e-15 0)
(0.927951 4.34473e-15 0)
(0.927926 2.65928e-15 0)
(0.927961 3.35456e-15 0)
(0.928074 2.28196e-15 0)
(0.928421 3.45336e-15 0)
(0.928858 7.7088e-15 0)
(0.928638 1.13497e-15 0)
(0.928061 6.81309e-15 0)
(0.929126 2.44689e-15 0)
(0.928788 3.49752e-15 0)
(0.926516 9.40288e-16 0)
(0.92603 2.0314e-15 0)
(0.92591 3.70725e-15 0)
(0.9259 4.45766e-15 0)
(0.926176 3.49635e-15 0)
(0.926968 4.06248e-15 0)
(0.928135 6.78045e-15 0)
(0.928673 1.79922e-15 0)
(0.928399 4.6242e-15 0)
(0.927941 1.44072e-15 0)
(0.927277 3.3107e-15 0)
(0.926154 1.98793e-15 0)
(0.922563 1.4225e-15 0)
(0.904068 1.98731e-15 0)
(0.805555 1.26488e-15 0)
(0.458976 -2.19038e-16 0)
(0.0623273 1.06584e-15 0)
(0.000806103 8.62402e-16 0)
(7.21736e-07 -4.71626e-16 0)
(3.3126e-11 1.22514e-16 0)
(1.72867e-17 -5.09573e-17 0)
(-7.28595e-16 -7.58939e-18 0)
(-7.27497e-16 -1.05167e-16 0)
(4.90058e-16 1.99492e-16 0)
(4.7089e-16 0 0)
(2.84949e-17 -2.7105e-16 0)
(-1.47578e-16 -6.46182e-16 0)
(-1.22881e-16 -4.27174e-16 0)
(1.06652e-16 -5.85467e-17 0)
(4.46688e-16 2.7105e-16 0)
(2.45025e-16 4.66205e-16 0)
(4.23213e-17 3.01407e-16 0)
(2.8177e-16 1.01915e-16 0)
(4.36117e-16 0 0)
(6.90607e-17 0 0)
(-3.00213e-16 0 0)
(-1.58624e-16 -7.37255e-17 0)
(6.46652e-16 0 0)
(9.10069e-12 4.57532e-16 0)
(2.11623e-08 -1.51788e-17 0)
(5.78329e-06 -6.49872e-15 0)
(0.000263791 -6.33313e-16 0)
(0.00301654 3.6783e-15 0)
(0.0132646 8.50846e-16 0)
(0.0325901 7.28171e-15 0)
(0.0579377 5.42027e-15 0)
(0.086298 6.60021e-15 0)
(0.116145 -5.49075e-15 0)
(0.14683 8.52024e-15 0)
(0.178061 -1.28718e-14 0)
(0.209682 1.74818e-14 0)
(0.241596 7.88959e-15 0)
(0.27374 -1.37975e-14 0)
(0.306071 1.79021e-14 0)
(0.338558 7.20938e-15 0)
(0.371181 6.52148e-16 0)
(0.403926 2.15146e-14 0)
(0.436784 2.95631e-15 0)
(0.469751 1.42686e-14 0)
(0.502825 2.20116e-15 0)
(0.536008 2.3989e-15 0)
(0.569302 2.06128e-14 0)
(0.602709 9.60188e-15 0)
(0.636228 9.58215e-15 0)
(0.669856 6.407e-15 0)
(0.703582 1.69499e-14 0)
(0.737382 1.79387e-14 0)
(0.771216 2.17009e-14 0)
(0.804999 8.00654e-15 0)
(0.838533 5.5547e-15 0)
(0.871228 4.01643e-14 0)
(0.901303 5.61862e-15 0)
(0.924169 1.60406e-14 0)
(0.933693 2.73138e-14 0)
(0.931563 2.6042e-14 0)
(0.925773 1.84655e-14 0)
(0.92704 1.5601e-14 0)
(0.927604 1.09259e-14 0)
(0.927808 7.31285e-15 0)
(0.927997 7.75501e-15 0)
(0.928167 7.22934e-15 0)
(0.92842 5.89063e-15 0)
(0.92842 8.45883e-15 0)
(0.928214 6.65292e-15 0)
(0.928131 1.15852e-14 0)
(0.928178 7.89119e-15 0)
(0.928202 7.43464e-15 0)
(0.928154 4.20564e-15 0)
(0.928082 4.96555e-15 0)
(0.928011 3.86882e-15 0)
(0.927951 5.30783e-15 0)
(0.927926 4.64015e-15 0)
(0.927961 3.69413e-15 0)
(0.928074 3.74723e-16 0)
(0.928421 3.07265e-15 0)
(0.928858 4.17456e-15 0)
(0.928638 2.78366e-15 0)
(0.928061 2.66836e-15 0)
(0.929126 5.64519e-15 0)
(0.928788 2.89077e-15 0)
(0.926516 4.00586e-15 0)
(0.92603 2.98076e-15 0)
(0.92591 3.12579e-15 0)
(0.9259 2.23294e-15 0)
(0.926176 3.71231e-15 0)
(0.926968 3.86586e-15 0)
(0.928135 5.47066e-15 0)
(0.928673 3.43716e-15 0)
(0.928399 4.61655e-15 0)
(0.927941 2.232e-15 0)
(0.927277 1.67729e-15 0)
(0.926154 2.41074e-15 0)
(0.922563 2.18803e-15 0)
(0.904068 1.44475e-15 0)
(0.805555 1.83031e-16 0)
(0.458976 3.50162e-15 0)
(0.0623273 -6.02879e-16 0)
(0.000806103 -1.30227e-15 0)
(7.21736e-07 3.25259e-18 0)
(3.31257e-11 3.8489e-16 0)
(-1.43754e-16 2.13587e-16 0)
(-9.1487e-16 3.00323e-16 0)
(-8.68443e-16 2.39608e-16 0)
(9.04221e-16 4.87889e-16 0)
(6.21928e-16 1.84314e-16 0)
(9.45333e-18 1.12757e-16 0)
(-3.0916e-16 -2.47197e-16 0)
(-1.7291e-16 2.1684e-18 0)
(2.67801e-16 1.64798e-16 0)
(5.04788e-16 6.00646e-16 0)
(2.50411e-16 8.5218e-16 0)
(4.64153e-17 6.46182e-16 0)
(2.90558e-16 3.55617e-16 0)
(3.3038e-16 1.69135e-16 0)
(-6.19042e-18 -1.69135e-16 0)
(-3.25476e-16 -8.89043e-17 0)
(-1.81828e-16 -2.7105e-16 0)
(6.92038e-16 9.75778e-17 0)
(9.10101e-12 -6.54856e-16 0)
(2.11623e-08 -4.20669e-16 0)
(5.78329e-06 -1.00354e-14 0)
(0.000263791 -1.91946e-15 0)
(0.00301654 -6.39355e-15 0)
(0.0132646 4.48449e-15 0)
(0.0325901 5.27653e-15 0)
(0.0579377 3.83827e-15 0)
(0.086298 6.19529e-15 0)
(0.116145 -1.24362e-14 0)
(0.14683 1.06804e-14 0)
(0.178061 -1.13192e-14 0)
(0.209682 1.50441e-14 0)
(0.241596 4.09506e-15 0)
(0.27374 -9.61472e-15 0)
(0.306071 1.90914e-14 0)
(0.338558 5.75644e-15 0)
(0.371181 1.75855e-15 0)
(0.403926 2.19733e-14 0)
(0.436784 7.01846e-15 0)
(0.469751 1.1917e-14 0)
(0.502825 2.47503e-15 0)
(0.536008 6.14196e-15 0)
(0.569302 1.55738e-14 0)
(0.602709 4.28555e-15 0)
(0.636228 9.57641e-15 0)
(0.669856 6.71252e-15 0)
(0.703582 1.63281e-14 0)
(0.737382 9.27688e-15 0)
(0.771216 2.34886e-14 0)
(0.804999 -1.79688e-15 0)
(0.838533 1.0107e-14 0)
(0.871228 3.71448e-14 0)
(0.901303 -4.53454e-16 0)
(0.924169 2.06747e-14 0)
(0.933693 2.50494e-14 0)
(0.931563 2.37352e-14 0)
(0.925773 1.48577e-14 0)
(0.92704 1.22548e-14 0)
(0.927604 8.01745e-15 0)
(0.927808 3.63941e-15 0)
(0.927997 8.29776e-15 0)
(0.928167 5.58717e-15 0)
(0.92842 7.65298e-15 0)
(0.92842 1.02828e-14 0)
(0.928214 7.29057e-15 0)
(0.928131 1.24356e-14 0)
(0.928178 3.273e-15 0)
(0.928202 7.79602e-15 0)
(0.928154 4.07118e-15 0)
(0.928082 6.00594e-15 0)
(0.928011 3.76609e-15 0)
(0.927951 5.13088e-15 0)
(0.927926 7.39193e-15 0)
(0.927961 2.82028e-15 0)
(0.928074 1.88062e-16 0)
(0.928421 3.26995e-15 0)
(0.928858 2.35234e-15 0)
(0.928638 6.17012e-15 0)
(0.928061 5.25129e-16 0)
(0.929126 7.30476e-15 0)
(0.928788 1.67317e-15 0)
(0.926516 6.02062e-15 0)
(0.92603 4.24794e-15 0)
(0.92591 2.74895e-15 0)
(0.9259 1.09413e-16 0)
(0.926176 2.58738e-15 0)
(0.926968 1.32258e-15 0)
(0.928135 3.33554e-15 0)
(0.928673 1.86711e-15 0)
(0.928399 2.38328e-15 0)
(0.927941 2.92481e-15 0)
(0.927277 -2.76572e-16 0)
(0.926154 2.33517e-15 0)
(0.922563 3.56599e-15 0)
(0.904068 2.38072e-15 0)
(0.805555 -2.64691e-17 0)
(0.458976 7.46748e-15 0)
(0.0623273 -1.29115e-15 0)
(0.000806103 -5.20258e-15 0)
(7.21736e-07 6.1474e-16 0)
(3.31258e-11 1.45283e-16 0)
(-8.52774e-17 4.21753e-16 0)
(-1.00884e-15 5.42099e-16 0)
(-1.12106e-15 4.96563e-16 0)
(1.13624e-15 2.40692e-16 0)
(7.02129e-16 1.04083e-16 0)
(2.76478e-17 1.34441e-16 0)
(-3.24602e-16 2.79723e-16 0)
(4.35847e-18 1.0842e-16 0)
(4.27147e-16 2.81892e-16 0)
(6.90068e-16 4.18501e-16 0)
(3.07488e-16 5.009e-16 0)
(-1.38972e-16 4.57532e-16 0)
(3.19224e-16 2.77555e-16 0)
(-9.53904e-19 -6.50519e-17 0)
(-2.7143e-16 -2.90565e-16 0)
(-2.33507e-16 -1.95156e-17 0)
(-2.43047e-16 9.97462e-17 0)
(8.52592e-16 3.46943e-17 0)
(9.09925e-12 -8.21822e-16 0)
(2.11623e-08 -1.75206e-15 0)
(5.78329e-06 -3.57353e-15 0)
(0.000263791 -3.69143e-15 0)
(0.00301654 -6.62834e-15 0)
(0.0132646 2.03063e-15 0)
(0.0325901 1.56379e-15 0)
(0.0579377 3.72095e-15 0)
(0.086298 7.25954e-15 0)
(0.116145 -1.49924e-14 0)
(0.14683 1.10984e-14 0)
(0.178061 -7.20966e-15 0)
(0.209682 9.64023e-15 0)
(0.241596 1.59475e-15 0)
(0.27374 -5.07462e-15 0)
(0.306071 1.6758e-14 0)
(0.338558 3.0966e-15 0)
(0.371181 1.38225e-15 0)
(0.403926 1.88878e-14 0)
(0.436784 8.49343e-15 0)
(0.469751 9.64575e-15 0)
(0.502825 7.11741e-16 0)
(0.536008 1.04359e-14 0)
(0.569302 9.72731e-15 0)
(0.602709 2.27406e-15 0)
(0.636228 8.18591e-15 0)
(0.669856 6.8806e-15 0)
(0.703582 1.31186e-14 0)
(0.737382 2.75648e-15 0)
(0.771216 2.38418e-14 0)
(0.804999 -5.919e-15 0)
(0.838533 1.44078e-14 0)
(0.871228 3.3256e-14 0)
(0.901303 -2.77276e-15 0)
(0.924169 1.76542e-14 0)
(0.933693 2.48952e-14 0)
(0.931563 2.33939e-14 0)
(0.925773 1.40706e-14 0)
(0.92704 1.02967e-14 0)
(0.927604 8.04447e-15 0)
(0.927808 4.3388e-15 0)
(0.927997 1.03348e-14 0)
(0.928167 4.68526e-15 0)
(0.92842 7.66698e-15 0)
(0.92842 1.00017e-14 0)
(0.928214 6.91034e-15 0)
(0.928131 7.92118e-15 0)
(0.928178 4.26059e-15 0)
(0.928202 6.95788e-15 0)
(0.928154 4.73683e-15 0)
(0.928082 6.72371e-15 0)
(0.928011 3.98845e-15 0)
(0.927951 2.14683e-15 0)
(0.927926 7.0835e-15 0)
(0.927961 1.91498e-15 0)
(0.928074 1.41134e-15 0)
(0.928421 2.66157e-15 0)
(0.928858 1.00288e-15 0)
(0.928638 7.02708e-15 0)
(0.928061 -1.04249e-15 0)
(0.929126 7.61928e-15 0)
(0.928788 1.84433e-15 0)
(0.926516 5.93014e-15 0)
(0.92603 3.58195e-15 0)
(0.92591 2.56027e-15 0)
(0.9259 9.27181e-16 0)
(0.926176 3.24654e-15 0)
(0.926968 2.01025e-15 0)
(0.928135 8.05395e-16 0)
(0.928673 1.05605e-15 0)
(0.928399 1.88938e-15 0)
(0.927941 2.61514e-15 0)
(0.927277 2.93921e-16 0)
(0.926154 1.90674e-15 0)
(0.922563 2.12608e-15 0)
(0.904068 3.38685e-15 0)
(0.805555 4.00979e-16 0)
(0.458976 3.68926e-15 0)
(0.0623273 -1.20987e-15 0)
(0.000806103 -2.55579e-15 0)
(7.21736e-07 5.78961e-16 0)
(3.31261e-11 -2.11419e-16 0)
(1.73443e-17 2.75386e-16 0)
(-1.09647e-15 3.42607e-16 0)
(-1.31513e-15 3.65375e-16 0)
(9.23737e-16 1.0842e-17 0)
(5.87993e-16 2.55871e-16 0)
(1.02795e-16 3.03576e-16 0)
(5.1887e-18 6.04983e-16 0)
(2.25631e-16 3.9248e-16 0)
(4.54506e-16 5.46436e-16 0)
(4.2367e-16 3.88143e-16 0)
(1.74202e-16 1.40946e-16 0)
(1.16578e-16 2.05998e-16 0)
(-7.66014e-17 -1.2143e-16 0)
(-3.25672e-16 -4.01153e-16 0)
(-7.01978e-17 -1.53956e-16 0)
(-2.57622e-16 2.12503e-16 0)
(-1.37641e-16 4.77047e-16 0)
(6.33385e-16 2.14671e-16 0)
(9.09916e-12 -2.40692e-16 0)
(2.11623e-08 -3.46943e-17 0)
(5.78329e-06 4.12214e-15 0)
(0.000263791 -7.99666e-15 0)
(0.00301654 -2.50003e-16 0)
(0.0132646 1.61617e-15 0)
(0.0325901 1.06668e-15 0)
(0.0579377 2.77448e-15 0)
(0.086298 9.54791e-15 0)
(0.116145 -1.26433e-14 0)
(0.14683 1.42816e-14 0)
(0.178061 -2.68452e-15 0)
(0.209682 4.97921e-15 0)
(0.241596 2.93973e-15 0)
(0.27374 1.16663e-15 0)
(0.306071 1.34206e-14 0)
(0.338558 4.16374e-16 0)
(0.371181 -9.69977e-16 0)
(0.403926 1.45639e-14 0)
(0.436784 9.00737e-15 0)
(0.469751 6.0823e-15 0)
(0.502825 -1.44546e-15 0)
(0.536008 1.43986e-14 0)
(0.569302 6.85174e-15 0)
(0.602709 2.52642e-15 0)
(0.636228 6.50908e-15 0)
(0.669856 7.98106e-15 0)
(0.703582 9.94286e-15 0)
(0.737382 -3.50547e-15 0)
(0.771216 2.40119e-14 0)
(0.804999 -9.62542e-15 0)
(0.838533 1.98821e-14 0)
(0.871228 2.45981e-14 0)
(0.901303 -2.14957e-15 0)
(0.924169 1.98445e-14 0)
(0.933693 2.18722e-14 0)
(0.931563 1.90126e-14 0)
(0.925773 1.16343e-14 0)
(0.92704 8.77366e-15 0)
(0.927604 6.99265e-15 0)
(0.927808 5.99168e-15 0)
(0.927997 8.56182e-15 0)
(0.928167 6.14825e-15 0)
(0.92842 8.42655e-15 0)
(0.92842 7.19126e-15 0)
(0.928214 6.89697e-15 0)
(0.928131 1.54996e-15 0)
(0.928178 9.23414e-15 0)
(0.928202 8.39452e-15 0)
(0.928154 4.20977e-15 0)
(0.928082 6.14466e-15 0)
(0.928011 7.38734e-15 0)
(0.927951 2.23386e-15 0)
(0.927926 3.90213e-15 0)
(0.927961 4.91124e-15 0)
(0.928074 3.58474e-15 0)
(0.928421 5.04932e-15 0)
(0.928858 1.90334e-15 0)
(0.928638 2.69684e-15 0)
(0.928061 2.31989e-15 0)
(0.929126 7.20717e-15 0)
(0.928788 6.21713e-15 0)
(0.926516 6.0016e-15 0)
(0.92603 2.76425e-15 0)
(0.92591 4.06764e-15 0)
(0.9259 5.2405e-15 0)
(0.926176 4.3017e-15 0)
(0.926968 4.84282e-15 0)
(0.928135 2.54701e-15 0)
(0.928673 2.41275e-15 0)
(0.928399 2.05571e-15 0)
(0.927941 1.86723e-15 0)
(0.927277 2.35443e-15 0)
(0.926154 9.73796e-16 0)
(0.922563 -4.84409e-16 0)
(0.904068 7.01068e-16 0)
(0.805555 1.03624e-16 0)
(0.458976 -1.52953e-15 0)
(0.0623273 1.01646e-15 0)
(0.000806103 2.66954e-15 0)
(7.21736e-07 -7.74117e-16 0)
(3.31261e-11 -5.05236e-16 0)
(9.05596e-17 4.22837e-17 0)
(-1.04273e-15 8.99885e-17 0)
(-1.21322e-15 2.64544e-16 0)
(1.10588e-15 -2.1684e-16 0)
(6.88616e-16 -9.97462e-17 0)
(1.46826e-16 -5.20415e-17 0)
(1.42552e-17 2.64544e-16 0)
(3.60251e-16 2.10334e-16 0)
(6.75364e-16 2.51534e-16 0)
(3.51593e-16 -7.15571e-17 0)
(1.75864e-16 -3.96817e-16 0)
(-1.47182e-16 -2.73218e-16 0)
(-4.12609e-16 -5.03068e-16 0)
(-7.55683e-17 -1.66967e-16 0)
(1.84297e-16 1.36609e-16 0)
(-9.64503e-17 2.38524e-17 0)
(-3.5777e-16 2.47197e-16 0)
(3.14032e-16 -4.33679e-18 0)
(9.09842e-12 -7.95802e-16 0)
(2.11623e-08 1.54824e-15 0)
(5.78329e-06 4.44957e-15 0)
(0.000263791 -7.2137e-15 0)
(0.00301654 -6.56529e-16 0)
(0.0132646 2.76087e-15 0)
(0.0325901 1.02655e-15 0)
(0.0579377 -1.17995e-15 0)
(0.086298 9.49539e-15 0)
(0.116145 -1.14915e-14 0)
(0.14683 1.35844e-14 0)
(0.178061 1.3252e-15 0)
(0.209682 8.44153e-16 0)
(0.241596 2.54973e-15 0)
(0.27374 6.60952e-15 0)
(0.306071 9.94309e-15 0)
(0.338558 -5.16828e-16 0)
(0.371181 -4.76743e-16 0)
(0.403926 8.64939e-15 0)
(0.436784 9.69155e-15 0)
(0.469751 4.57361e-15 0)
(0.502825 -1.18849e-15 0)
(0.536008 1.61316e-14 0)
(0.569302 7.001e-15 0)
(0.602709 2.1386e-15 0)
(0.636228 5.66732e-15 0)