/*--------------------------------*- C++ -*----------------------------------*\
| =========                 |                                                 |
| \\      /  F ield         | OpenFOAM: The Open Source CFD Toolbox           |
|  \\    /   O peration     | Version:  4.1                                   |
|   \\  /    A nd           | Web:      www.OpenFOAM.org                      |
|    \\/     M anipulation  |                                                 |
\*---------------------------------------------------------------------------*/
FoamFile
{
    version     2.0;
    format      ascii;
    class       volVectorField;
    location    "0.37";
    object      U;
}
// * * * * * * * * * * * * * * * * * * * * * * * * * * * * * * * * * * * * * //

dimensions      [0 1 -1 0 0 0 0];

internalField   nonuniform List<vector> 
10000
(
(0 0 0)
(1.7996e-16 0 0)
(3.06733e-16 0 0)
(1.01079e-16 1.56125e-16 0)
(-1.22098e-16 0 0)
(-2.99852e-16 0 0)
(-2.72342e-16 0 0)
(-4.72358e-17 0 0)
(-8.32729e-21 0 0)
(2.48172e-16 1.51788e-16 0)
(5.11663e-16 0 0)
(1.76619e-16 -1.56125e-16 0)
(-2.01127e-16 0 0)
(5.43603e-17 0 0)
(1.64115e-16 0 0)
(-4.94989e-17 1.32272e-16 0)
(-2.61412e-16 0 0)
(-1.51919e-16 0 0)
(-4.88762e-17 0 0)
(-2.03918e-16 0 0)
(-1.03032e-17 1.30104e-17 0)
(2.70493e-14 5.37762e-16 0)
(2.92405e-10 -2.68881e-16 0)
(2.95059e-07 1.83446e-15 0)
(3.93395e-05 3.95746e-15 0)
(0.00100818 -4.6465e-15 0)
(0.00759292 -1.64203e-14 0)
(0.0255954 1.31985e-14 0)
(0.0540629 -6.10859e-15 0)
(0.0885078 1.13178e-15 0)
(0.125869 1.89857e-14 0)
(0.164753 1.6422e-14 0)
(0.204558 1.41075e-14 0)
(0.244989 1.00854e-14 0)
(0.285879 2.86848e-15 0)
(0.327126 3.16327e-14 0)
(0.368666 -2.30939e-14 0)
(0.410458 1.00702e-14 0)
(0.452483 -7.00427e-15 0)
(0.494732 7.85381e-15 0)
(0.537207 3.44736e-15 0)
(0.579914 5.70951e-14 0)
(0.622858 6.56508e-14 0)
(0.666035 7.34029e-14 0)
(0.709415 1.99103e-14 0)
(0.752924 4.59805e-14 0)
(0.796361 -1.55989e-14 0)
(0.839247 -1.41454e-15 0)
(0.880033 8.37523e-14 0)
(0.914517 6.57558e-14 0)
(0.933491 -1.58712e-14 0)
(0.934796 -1.29286e-14 0)
(0.925335 -4.47716e-15 0)
(0.926646 2.41903e-15 0)
(0.927574 7.97611e-15 0)
(0.927763 1.23602e-14 0)
(0.927937 1.38786e-14 0)
(0.928146 1.12161e-14 0)
(0.928345 8.26782e-15 0)
(0.928467 8.12279e-15 0)
(0.928261 7.19596e-15 0)
(0.928099 7.66911e-15 0)
(0.928088 5.48396e-15 0)
(0.928119 6.87874e-15 0)
(0.928177 4.22611e-15 0)
(0.928367 5.75991e-15 0)
(0.928727 -4.87735e-17 0)
(0.929269 -3.03868e-16 0)
(0.92992 -4.18721e-15 0)
(0.92609 -1.81444e-14 0)
(0.924372 -7.39859e-15 0)
(0.928911 -6.92868e-15 0)
(0.929907 -8.68513e-15 0)
(0.92965 -8.24344e-15 0)
(0.928462 -6.56096e-15 0)
(0.926726 -3.27675e-15 0)
(0.925742 -1.04883e-15 0)
(0.925447 -2.19987e-15 0)
(0.925298 -3.0689e-15 0)
(0.924014 -4.7754e-15 0)
(0.915516 -5.05696e-15 0)
(0.862483 -4.5802e-15 0)
(0.624733 -4.05175e-15 0)
(0.166819 -1.02962e-15 0)
(0.00529817 1.4893e-15 0)
(1.28918e-05 9.75767e-18 0)
(1.74326e-09 -1.2037e-34 0)
(4.68711e-14 0 0)
(-2.01386e-16 0 0)
(-2.23221e-16 0 0)
(-2.95522e-16 -6.50519e-18 0)
(-4.46105e-16 0 0)
(-2.58987e-16 1.18178e-16 0)
(3.50853e-17 0 0)
(2.50525e-16 0 0)
(7.85868e-18 0 0)
(-2.52977e-16 1.92987e-16 0)
(-3.33579e-16 1.65882e-16 0)
(-2.72135e-16 9.32411e-17 0)
(-1.40946e-16 1.70219e-16 0)
(0 0 0)
(2.18763e-16 0 0)
(3.11291e-16 1.38777e-16 0)
(1.01795e-16 3.40438e-16 0)
(-1.18035e-16 1.25767e-16 0)
(-3.22244e-16 2.62376e-16 0)
(-3.16392e-16 4.98731e-17 0)
(-5.67957e-17 0 0)
(-2.11512e-19 0 0)
(2.47087e-16 0 0)
(5.51344e-16 0 0)
(1.86298e-16 0 0)
(-1.75757e-16 0 0)
(7.1433e-17 0 0)
(1.65688e-16 1.30104e-16 0)
(-4.93593e-17 3.16586e-16 0)
(-2.64418e-16 1.27935e-16 0)
(-1.61782e-16 0 0)
(-6.81311e-17 0 0)
(-2.17259e-16 0 0)
(-2.07275e-17 0 0)
(2.79555e-14 4.29343e-16 0)
(2.92403e-10 8.67359e-18 0)
(2.9506e-07 5.50339e-15 0)
(3.93395e-05 1.10744e-14 0)
(0.00100818 -3.61346e-15 0)
(0.00759292 -1.38953e-14 0)
(0.0255954 2.4088e-14 0)
(0.0540629 -1.50143e-14 0)
(0.0885078 -2.77334e-15 0)
(0.125869 2.54925e-14 0)
(0.164753 -3.46922e-15 0)
(0.204558 1.34623e-14 0)
(0.244989 1.24139e-14 0)
(0.285879 6.73155e-15 0)
(0.327126 1.85473e-14 0)
(0.368666 -9.4706e-15 0)
(0.410458 2.68162e-14 0)
(0.452483 -2.50533e-15 0)
(0.494732 7.0248e-15 0)
(0.537207 1.80031e-14 0)
(0.579914 3.50384e-14 0)
(0.622858 2.42299e-14 0)
(0.666035 3.1721e-14 0)
(0.709415 2.34042e-14 0)
(0.752924 4.27739e-14 0)
(0.796361 6.12024e-15 0)
(0.839247 2.28331e-14 0)
(0.880033 2.28808e-14 0)
(0.914517 5.8788e-14 0)
(0.933491 5.51655e-15 0)
(0.934796 -1.65036e-15 0)
(0.925335 4.8551e-16 0)
(0.926646 6.82812e-15 0)
(0.927574 7.14825e-15 0)
(0.927763 1.00478e-14 0)
(0.927937 8.7171e-15 0)
(0.928146 3.90362e-15 0)
(0.928345 5.80034e-15 0)
(0.928467 7.64625e-15 0)
(0.928261 9.40459e-15 0)
(0.928099 1.09855e-14 0)
(0.928088 9.97087e-15 0)
(0.928119 8.66764e-15 0)
(0.928177 6.48597e-15 0)
(0.928367 4.88171e-15 0)
(0.928727 7.04381e-16 0)
(0.929269 8.91694e-15 0)
(0.92992 -8.05419e-15 0)
(0.92609 -3.95332e-16 0)
(0.924372 -8.49944e-15 0)
(0.928911 -6.48179e-15 0)
(0.929907 -5.08732e-15 0)
(0.92965 -3.74408e-15 0)
(0.928462 -1.26251e-15 0)
(0.926726 3.48518e-15 0)
(0.925742 2.96638e-15 0)
(0.925447 2.44801e-15 0)
(0.925298 2.61402e-15 0)
(0.924014 4.16989e-16 0)
(0.915516 -3.84438e-16 0)
(0.862483 -3.58263e-15 0)
(0.624733 -1.788e-15 0)
(0.166819 7.56378e-18 0)
(0.00529817 4.83806e-15 0)
(1.28918e-05 -5.41008e-16 0)
(1.74326e-09 -2.43945e-16 0)
(4.68503e-14 6.28835e-17 0)
(-2.4965e-16 0 0)
(-2.77974e-16 6.17993e-17 0)
(-1.97055e-16 5.09573e-17 0)
(-3.10672e-16 2.01661e-16 0)
(-1.92546e-16 3.19838e-16 0)
(7.43301e-19 1.31188e-16 0)
(2.11921e-16 7.58939e-18 0)
(-2.45595e-17 6.72203e-17 0)
(-2.81299e-16 3.20923e-16 0)
(-3.88724e-16 3.69712e-16 0)
(-3.74817e-16 2.81892e-16 0)
(-3.46943e-16 3.74048e-16 0)
(0 0 0)
(2.59229e-16 0 0)
(5.21274e-16 0 0)
(1.13767e-16 1.06251e-16 0)
(-3.50331e-16 3.44775e-16 0)
(-3.24209e-16 5.89804e-16 0)
(-3.45522e-16 2.68881e-16 0)
(-4.45555e-17 0 0)
(-2.70571e-18 0 0)
(2.51452e-16 0 0)
(5.76608e-16 0 0)
(2.12497e-16 2.1684e-18 0)
(-1.46222e-16 7.80623e-17 0)
(8.54936e-17 3.05744e-16 0)
(3.29262e-16 1.79977e-16 0)
(-3.69351e-17 7.80623e-17 0)
(-4.07149e-16 0 0)
(-1.66474e-16 0 0)
(-9.0143e-17 1.01915e-16 0)
(-2.13705e-16 0 0)
(-1.36235e-17 0 0)
(2.80246e-14 -2.01661e-16 0)
(2.92404e-10 6.24498e-16 0)
(2.9506e-07 6.33606e-15 0)
(3.93395e-05 2.05549e-14 0)
(0.00100818 1.7362e-15 0)
(0.00759292 -1.17674e-14 0)
(0.0255954 2.9679e-14 0)
(0.0540629 -1.34818e-14 0)
(0.0885078 -1.22228e-14 0)
(0.125869 3.15514e-14 0)
(0.164753 -7.47044e-15 0)
(0.204558 1.20982e-14 0)
(0.244989 1.13006e-14 0)
(0.285879 7.51222e-15 0)
(0.327126 1.64577e-14 0)
(0.368666 -5.487e-15 0)
(0.410458 3.06364e-14 0)
(0.452483 5.82748e-16 0)
(0.494732 2.5441e-15 0)
(0.537207 2.68597e-14 0)
(0.579914 2.56507e-14 0)
(0.622858 1.0625e-14 0)
(0.666035 1.47235e-14 0)
(0.709415 2.25548e-14 0)
(0.752924 3.60812e-14 0)
(0.796361 1.0864e-14 0)
(0.839247 2.67097e-14 0)
(0.880033 8.60684e-15 0)
(0.914517 4.65749e-14 0)
(0.933491 2.68647e-15 0)
(0.934796 -4.41419e-16 0)
(0.925335 2.25619e-15 0)
(0.926646 8.99295e-15 0)
(0.927574 6.68773e-15 0)
(0.927763 9.2498e-15 0)
(0.927937 5.53638e-15 0)
(0.928146 2.4752e-15 0)
(0.928345 3.21941e-15 0)
(0.928467 3.8778e-15 0)
(0.928261 9.55633e-15 0)
(0.928099 1.04867e-14 0)
(0.928088 1.00803e-14 0)
(0.928119 9.5416e-15 0)
(0.928177 6.53479e-15 0)
(0.928367 6.5823e-15 0)
(0.928727 6.84342e-17 0)
(0.929269 9.40205e-15 0)
(0.92992 -9.61965e-15 0)
(0.92609 9.58557e-15 0)
(0.924372 -5.67378e-15 0)
(0.928911 -3.59466e-15 0)
(0.929907 -1.90819e-15 0)
(0.92965 -6.71132e-16 0)
(0.928462 3.58584e-15 0)
(0.926726 6.55094e-15 0)
(0.925742 6.49002e-15 0)
(0.925447 4.86526e-15 0)
(0.925298 2.82866e-15 0)
(0.924014 3.2099e-15 0)
(0.915516 2.02423e-15 0)
(0.862483 6.95339e-16 0)
(0.624733 1.96771e-15 0)
(0.166819 2.59627e-15 0)
(0.00529817 2.74009e-15 0)
(1.28918e-05 -2.10766e-15 0)
(1.74326e-09 -4.23922e-16 0)
(4.67872e-14 3.55617e-16 0)
(-2.86502e-16 4.44521e-17 0)
(-3.22812e-16 2.13587e-16 0)
(-1.8843e-16 1.9624e-16 0)
(-1.19597e-16 3.93564e-16 0)
(-1.56417e-16 5.29089e-16 0)
(-6.93665e-17 3.85975e-16 0)
(1.06323e-16 2.7105e-16 0)
(-4.08085e-18 1.59377e-16 0)
(-2.2933e-16 3.65375e-16 0)
(-4.39044e-16 5.73541e-16 0)
(-4.82568e-16 4.81384e-16 0)
(-5.56194e-16 5.84383e-16 0)
(-2.1684e-18 -2.1684e-18 0)
(2.68276e-16 -2.1684e-18 0)
(5.70636e-16 -2.1684e-18 0)
(1.65602e-16 3.90311e-17 0)
(-3.09283e-16 2.86228e-16 0)
(-6.94132e-16 2.1684e-16 0)
(-3.74421e-16 -2.1684e-18 0)
(-2.30177e-17 -2.1684e-18 0)
(-1.40356e-17 0 0)
(1.63346e-16 0 0)
(4.10695e-16 -4.33679e-18 0)
(2.36165e-16 -4.77047e-17 0)
(9.37006e-17 3.03576e-16 0)
(1.9141e-16 6.37509e-16 0)
(2.85765e-16 3.70796e-16 0)
(-5.27216e-17 0 0)
(-3.92288e-16 -2.1684e-18 0)
(-1.40234e-16 1.17093e-16 0)
(-9.17651e-17 3.55617e-16 0)
(-2.28385e-16 1.73472e-16 0)
(-2.31522e-17 1.95156e-17 0)
(2.75137e-14 2.19008e-16 0)
(2.92405e-10 9.67105e-16 0)
(2.9506e-07 1.13841e-15 0)
(3.93395e-05 2.56747e-14 0)
(0.00100818 5.26068e-15 0)
(0.00759292 -1.91897e-14 0)
(0.0255954 3.73752e-14 0)
(0.0540629 -7.01449e-15 0)
(0.0885078 -1.73918e-14 0)
(0.125869 3.51133e-14 0)
(0.164753 -5.6659e-15 0)
(0.204558 9.14381e-15 0)
(0.244989 1.04672e-14 0)
(0.285879 5.85642e-15 0)
(0.327126 1.49358e-14 0)
(0.368666 -6.24393e-15 0)
(0.410458 3.22024e-14 0)
(0.452483 3.15103e-15 0)
(0.494732 -1.48853e-15 0)
(0.537207 3.05776e-14 0)
(0.579914 1.73621e-14 0)
(0.622858 5.53521e-15 0)
(0.666035 8.43668e-15 0)
(0.709415 2.40039e-14 0)
(0.752924 3.20435e-14 0)
(0.796361 1.2331e-14 0)
(0.839247 2.50539e-14 0)
(0.880033 3.16417e-15 0)
(0.914517 3.0072e-14 0)
(0.933491 2.97914e-15 0)
(0.934796 3.30327e-15 0)
(0.925335 7.09288e-15 0)
(0.926646 8.02159e-15 0)
(0.927574 7.92936e-15 0)
(0.927763 8.39682e-15 0)
(0.927937 4.53708e-15 0)
(0.928146 4.25318e-15 0)
(0.928345 6.12101e-16 0)
(0.928467 2.36203e-15 0)
(0.928261 6.63099e-15 0)
(0.928099 9.02212e-15 0)
(0.928088 1.19659e-14 0)
(0.928119 8.53001e-15 0)
(0.928177 3.28177e-15 0)
(0.928367 5.60161e-15 0)
(0.928727 1.52673e-15 0)
(0.929269 1.05568e-14 0)
(0.92992 -6.56101e-15 0)
(0.92609 1.17372e-14 0)
(0.924372 -4.59233e-15 0)
(0.928911 -4.97178e-16 0)
(0.929907 7.63483e-16 0)
(0.92965 1.88102e-15 0)
(0.928462 6.24123e-15 0)
(0.926726 4.89075e-15 0)
(0.925742 8.53328e-15 0)
(0.925447 6.8939e-15 0)
(0.925298 4.16154e-15 0)
(0.924014 5.0674e-15 0)
(0.915516 4.30818e-15 0)
(0.862483 3.72676e-15 0)
(0.624733 2.70357e-15 0)
(0.166819 4.79827e-15 0)
(0.00529817 3.76641e-15 0)
(1.28918e-05 -1.43112e-15 0)
(1.74326e-09 6.31003e-16 0)
(4.61741e-14 4.2609e-16 0)
(-2.83241e-16 9.75778e-17 0)
(-2.20491e-16 2.02745e-16 0)
(-1.17894e-16 1.0083e-16 0)
(-1.13067e-17 2.11419e-16 0)
(-1.8425e-16 3.89227e-16 0)
(-2.03786e-16 5.91972e-16 0)
(-1.00509e-16 5.57278e-16 0)
(-1.73973e-16 3.95732e-16 0)
(-1.24665e-16 2.60208e-16 0)
(-3.31474e-16 3.43691e-16 0)
(-6.20682e-16 2.45029e-16 0)
(-8.09896e-16 3.36101e-16 0)
(-2.1684e-18 2.1684e-18 0)
(2.52513e-16 2.1684e-18 0)
(5.78248e-16 2.1684e-18 0)
(1.45815e-16 1.64798e-16 0)
(-6.4457e-16 -1.66967e-16 0)
(-6.81755e-16 -5.44268e-16 0)
(-3.33253e-16 -2.40692e-16 0)
(7.08882e-18 2.1684e-18 0)
(-3.36754e-17 0 0)
(1.78032e-16 -2.1684e-18 0)
(4.32172e-16 9.54094e-17 0)
(2.52085e-16 2.77555e-16 0)
(2.86444e-16 1.2143e-16 0)
(1.43962e-16 2.68881e-16 0)
(2.95853e-16 8.67359e-17 0)
(-5.31704e-17 9.32411e-17 0)
(-4.01827e-16 2.1684e-18 0)
(-1.74319e-16 2.1684e-18 0)
(-1.23435e-16 -1.30104e-17 0)
(-3.06365e-16 0 0)
(-7.12114e-17 4.11995e-17 0)
(2.82689e-14 7.5677e-16 0)
(2.92405e-10 -7.80623e-17 0)
(2.9506e-07 -5.06321e-15 0)
(3.93395e-05 2.03337e-14 0)
(0.00100818 1.21968e-14 0)
(0.00759292 -2.24458e-14 0)
(0.0255954 3.65552e-14 0)
(0.0540629 2.62462e-15 0)
(0.0885078 -2.22662e-14 0)
(0.125869 3.00216e-14 0)
(0.164753 -7.55411e-15 0)
(0.204558 6.30447e-15 0)
(0.244989 7.72082e-15 0)
(0.285879 -6.72322e-16 0)
(0.327126 1.32656e-14 0)
(0.368666 -9.24472e-15 0)
(0.410458 3.06768e-14 0)
(0.452483 4.87668e-15 0)
(0.494732 -3.39828e-15 0)
(0.537207 3.08901e-14 0)
(0.579914 1.14385e-14 0)
(0.622858 5.7896e-15 0)
(0.666035 4.48189e-15 0)
(0.709415 2.36085e-14 0)
(0.752924 2.96048e-14 0)
(0.796361 9.25298e-15 0)
(0.839247 2.00366e-14 0)
(0.880033 3.87393e-15 0)
(0.914517 2.08544e-14 0)
(0.933491 2.94363e-15 0)
(0.934796 1.38192e-15 0)
(0.925335 6.60959e-15 0)
(0.926646 3.43011e-15 0)
(0.927574 7.22458e-15 0)
(0.927763 7.77474e-15 0)
(0.927937 3.44398e-15 0)
(0.928146 6.69724e-15 0)
(0.928345 -3.4298e-15 0)
(0.928467 1.75229e-15 0)
(0.928261 6.53556e-15 0)
(0.928099 7.84258e-15 0)
(0.928088 1.25978e-14 0)
(0.928119 3.39138e-15 0)
(0.928177 3.02395e-15 0)
(0.928367 3.13268e-15 0)
(0.928727 5.17226e-16 0)
(0.929269 1.16659e-14 0)
(0.92992 -5.76181e-15 0)
(0.92609 1.13557e-14 0)
(0.924372 -4.52085e-15 0)
(0.928911 1.5803e-16 0)
(0.929907 -5.61837e-16 0)
(0.92965 3.23714e-15 0)
(0.928462 7.61203e-15 0)
(0.926726 1.93741e-15 0)
(0.925742 7.44084e-15 0)
(0.925447 3.25239e-15 0)
(0.925298 5.09691e-15 0)
(0.924014 5.29023e-15 0)
(0.915516 5.12498e-15 0)
(0.862483 3.1664e-15 0)
(0.624733 3.44857e-15 0)
(0.166819 9.69676e-15 0)
(0.00529817 2.35805e-15 0)
(1.28918e-05 1.92334e-15 0)
(1.74326e-09 5.23668e-16 0)
(4.59951e-14 2.46113e-16 0)
(-4.39708e-16 2.51534e-16 0)
(-3.85526e-16 2.92734e-17 0)
(-6.01173e-17 -1.35525e-16 0)
(1.80794e-16 -1.18178e-16 0)
(8.34745e-17 4.22837e-17 0)
(4.79453e-17 4.35848e-16 0)
(3.03917e-17 6.93887e-16 0)
(-1.93064e-16 6.13656e-16 0)
(-3.47547e-16 2.1684e-16 0)
(-5.57752e-16 -1.16009e-16 0)
(-7.87038e-16 -7.58939e-17 0)
(-9.70357e-16 -1.94071e-16 0)
(0 0 0)
(2.04227e-16 0 0)
(2.86414e-16 -1.90819e-16 0)
(-1.50101e-16 -4.40184e-16 0)
(-7.21774e-16 -6.04983e-16 0)
(-3.84488e-16 -2.7105e-16 0)
(-6.97633e-17 -2.1684e-17 0)
(6.55299e-17 0 0)
(-4.4224e-17 0 0)
(1.91142e-16 7.15571e-17 0)
(4.59679e-16 3.53449e-16 0)
(2.5032e-16 5.2692e-16 0)
(-3.05152e-17 2.4286e-16 0)
(7.47637e-17 -9.54094e-17 0)
(3.07745e-16 -6.50519e-17 0)
(-5.02917e-17 -9.54094e-17 0)
(-4.07226e-16 0 0)
(-2.33971e-16 -1.01915e-16 0)
(-5.27505e-17 -3.79469e-16 0)
(-8.66532e-17 -1.36609e-16 0)
(1.22689e-16 0 0)
(2.87828e-14 1.36609e-16 0)
(2.92403e-10 -1.0495e-15 0)
(2.9506e-07 -4.65555e-15 0)
(3.93395e-05 1.55392e-14 0)
(0.00100818 1.18712e-14 0)
(0.00759292 -2.23716e-14 0)
(0.0255954 2.60613e-14 0)
(0.0540629 4.79174e-15 0)
(0.0885078 -1.92941e-14 0)
(0.125869 2.39687e-14 0)
(0.164753 -7.84883e-15 0)
(0.204558 5.78211e-15 0)
(0.244989 5.59602e-15 0)
(0.285879 -5.63972e-15 0)
(0.327126 1.22726e-14 0)
(0.368666 -9.13552e-15 0)
(0.410458 2.74081e-14 0)
(0.452483 4.24873e-15 0)
(0.494732 -5.46914e-15 0)
(0.537207 2.71355e-14 0)
(0.579914 7.28868e-15 0)
(0.622858 4.08922e-15 0)
(0.666035 9.58646e-16 0)
(0.709415 2.02585e-14 0)
(0.752924 2.44554e-14 0)
(0.796361 9.76691e-15 0)
(0.839247 1.42328e-14 0)
(0.880033 8.94048e-15 0)
(0.914517 1.84665e-14 0)
(0.933491 2.32535e-15 0)
(0.934796 1.29575e-15 0)
(0.925335 3.21261e-15 0)
(0.926646 4.25467e-15 0)
(0.927574 8.79029e-15 0)
(0.927763 6.99651e-15 0)
(0.927937 2.0075e-15 0)
(0.928146 5.89008e-15 0)
(0.928345 -5.2874e-15 0)
(0.928467 -5.21364e-17 0)
(0.928261 3.6414e-15 0)
(0.928099 4.87347e-15 0)
(0.928088 8.68372e-15 0)
(0.928119 1.57481e-15 0)
(0.928177 3.47071e-15 0)
(0.928367 1.85855e-15 0)
(0.928727 -6.42752e-18 0)
(0.929269 8.11674e-15 0)
(0.92992 -4.51247e-15 0)
(0.92609 1.02574e-14 0)
(0.924372 -1.67987e-15 0)
(0.928911 7.86044e-16 0)
(0.929907 -2.07187e-15 0)
(0.92965 1.07494e-15 0)
(0.928462 4.35259e-15 0)
(0.926726 1.22076e-15 0)
(0.925742 4.94499e-15 0)
(0.925447 1.20222e-15 0)
(0.925298 1.64484e-15 0)
(0.924014 1.97635e-15 0)
(0.915516 2.51534e-15 0)
(0.862483 9.5078e-16 0)
(0.624733 1.04692e-15 0)
(0.166819 1.09297e-14 0)
(0.00529817 -3.48474e-15 0)
(1.28918e-05 2.73974e-15 0)
(1.74326e-09 -2.35271e-16 0)
(4.59523e-14 9.21569e-17 0)
(-6.85186e-16 8.89043e-17 0)
(-5.18317e-16 -8.78201e-17 0)
(-1.99667e-16 3.25259e-18 0)
(5.65492e-17 -2.56955e-16 0)
(3.38363e-16 -1.94071e-16 0)
(3.60165e-16 1.24683e-16 0)
(1.28772e-16 4.34764e-16 0)
(-2.89732e-16 3.83806e-16 0)
(-5.79417e-16 -1.95156e-17 0)
(-7.41258e-16 -2.8406e-16 0)
(-6.39649e-16 -2.38524e-16 0)
(-7.41592e-16 -3.41522e-16 0)
(2.60208e-17 0 0)
(2.33913e-16 -1.6263e-16 0)
(-3.49621e-17 -5.09573e-16 0)
(-1.95669e-16 -8.80369e-16 0)
(-3.76563e-16 -6.91718e-16 0)
(-3.57737e-17 -3.49112e-16 0)
(2.025e-16 0 0)
(1.57241e-16 1.51788e-17 0)
(-3.51956e-17 0 0)
(2.01035e-16 0 0)
(4.25107e-16 1.01915e-16 0)
(3.1035e-17 2.53702e-16 0)
(-2.88924e-16 0 0)
(-2.93925e-17 -5.20415e-17 0)
(2.26062e-16 0 0)
(-1.32391e-17 -9.32411e-17 0)
(-2.78215e-16 0 0)
(-2.77101e-16 0 0)
(-7.78136e-17 -1.19262e-16 0)
(2.01451e-17 0 0)
(2.01965e-16 0 0)
(2.82522e-14 -1.04083e-16 0)
(2.92402e-10 -6.93887e-16 0)
(2.9506e-07 -1.03216e-15 0)
(3.93395e-05 1.59166e-15 0)
(0.00100818 9.41236e-15 0)
(0.00759292 -1.53073e-14 0)
(0.0255954 2.05767e-14 0)
(0.0540629 1.8118e-15 0)
(0.0885078 -1.25151e-14 0)
(0.125869 1.92175e-14 0)
(0.164753 -6.94843e-15 0)
(0.204558 6.41566e-15 0)
(0.244989 6.68387e-15 0)
(0.285879 -7.06632e-15 0)
(0.327126 1.00864e-14 0)
(0.368666 -5.81759e-15 0)
(0.410458 2.15573e-14 0)
(0.452483 2.53762e-15 0)
(0.494732 -4.41357e-15 0)
(0.537207 2.13282e-14 0)
(0.579914 7.47124e-15 0)
(0.622858 4.98386e-15 0)
(0.666035 1.14584e-15 0)
(0.709415 1.5256e-14 0)
(0.752924 1.80208e-14 0)
(0.796361 1.18919e-14 0)
(0.839247 7.97573e-15 0)
(0.880033 1.85009e-14 0)
(0.914517 8.13034e-15 0)
(0.933491 8.83346e-15 0)
(0.934796 9.88451e-15 0)
(0.925335 6.65212e-15 0)
(0.926646 7.0032e-15 0)
(0.927574 1.04136e-14 0)
(0.927763 5.85825e-15 0)
(0.927937 4.40799e-15 0)
(0.928146 3.83721e-15 0)
(0.928345 -2.12837e-15 0)
(0.928467 9.73107e-16 0)
(0.928261 8.84026e-16 0)
(0.928099 2.42701e-15 0)
(0.928088 4.7754e-15 0)
(0.928119 2.66904e-15 0)
(0.928177 2.50196e-15 0)
(0.928367 1.89014e-15 0)
(0.928727 5.69781e-16 0)
(0.929269 3.31262e-15 0)
(0.92992 -4.03945e-16 0)
(0.92609 8.89004e-15 0)
(0.924372 -2.16494e-16 0)
(0.928911 5.65931e-16 0)
(0.929907 -4.87952e-16 0)
(0.92965 2.6168e-17 0)
(0.928462 1.94714e-15 0)
(0.926726 1.09396e-15 0)
(0.925742 2.06533e-15 0)
(0.925447 8.92562e-16 0)
(0.925298 7.20227e-16 0)
(0.924014 6.16263e-16 0)
(0.915516 1.09147e-15 0)
(0.862483 9.0991e-16 0)
(0.624733 -6.66579e-17 0)
(0.166819 3.39803e-15 0)
(0.00529817 -2.43792e-15 0)
(1.28918e-05 7.31825e-16 0)
(1.74326e-09 -4.44521e-17 0)
(4.59275e-14 0 0)
(-7.88384e-16 0 0)
(-5.70355e-16 0 0)
(-3.20373e-16 -1.6263e-17 0)
(5.37521e-17 -9.97462e-17 0)
(4.09943e-16 -9.8662e-17 0)
(4.73859e-16 0 0)
(1.86905e-16 0 0)
(-3.21177e-16 6.17993e-17 0)
(-6.33435e-16 6.28835e-17 0)
(-6.52379e-16 -7.15571e-17 0)
(-5.5098e-16 -3.03576e-17 0)
(-5.28005e-16 -1.30104e-16 0)
(3.62122e-16 1.99492e-16 0)
(3.43652e-16 0 0)
(-4.47074e-17 -2.08166e-16 0)
(-1.26607e-16 -5.44268e-16 0)
(-5.98284e-17 -3.12249e-16 0)
(1.00203e-16 -1.73472e-17 0)
(4.13849e-16 2.03829e-16 0)
(2.01602e-16 4.09827e-16 0)
(-1.12955e-17 2.66713e-16 0)
(2.54487e-16 7.58939e-17 0)
(4.36804e-16 0 0)
(6.90508e-17 0 0)
(-2.99493e-16 0 0)
(-8.20359e-18 -7.37255e-17 0)
(2.34706e-16 0 0)
(-3.21729e-17 9.32411e-17 0)
(-3.36718e-16 9.32411e-17 0)
(-4.10122e-16 0 0)
(-1.2139e-16 0 0)
(5.38526e-17 0 0)
(1.95786e-16 0 0)
(2.83503e-14 1.84314e-16 0)
(2.92402e-10 -1.79977e-16 0)
(2.9506e-07 5.83299e-16 0)
(3.93395e-05 -8.08188e-15 0)
(0.00100818 5.62311e-15 0)
(0.00759292 -1.52418e-14 0)
(0.0255954 1.7789e-14 0)
(0.0540629 -5.61818e-15 0)
(0.0885078 -4.83931e-15 0)
(0.125869 1.4063e-14 0)
(0.164753 -7.03585e-15 0)
(0.204558 8.2452e-15 0)
(0.244989 7.18359e-15 0)
(0.285879 -8.636e-15 0)
(0.327126 9.14683e-15 0)
(0.368666 -2.44731e-15 0)
(0.410458 1.47309e-14 0)
(0.452483 1.81443e-15 0)
(0.494732 -1.8292e-16 0)
(0.537207 1.60254e-14 0)
(0.579914 6.71195e-15 0)
(0.622858 6.24354e-15 0)
(0.666035 1.82763e-15 0)
(0.709415 1.2479e-14 0)
(0.752924 1.11963e-14 0)
(0.796361 1.21723e-14 0)
(0.839247 1.83867e-15 0)
(0.880033 2.52636e-14 0)
(0.914517 2.71179e-15 0)
(0.933491 1.3297e-14 0)
(0.934796 1.37135e-14 0)
(0.925335 8.56242e-15 0)
(0.926646 8.46453e-15 0)
(0.927574 8.54063e-15 0)
(0.927763 4.17551e-15 0)
(0.927937 8.24113e-15 0)
(0.928146 2.44692e-15 0)
(0.928345 -7.02995e-16 0)
(0.928467 7.69648e-16 0)
(0.928261 7.92093e-17 0)
(0.928099 2.60048e-15 0)
(0.928088 2.17639e-15 0)
(0.928119 2.06255e-15 0)
(0.928177 8.88828e-16 0)
(0.928367 1.12566e-15 0)
(0.928727 4.82064e-16 0)
(0.929269 1.83402e-15 0)
(0.92992 6.38168e-16 0)
(0.92609 6.88232e-15 0)
(0.924372 -1.57775e-15 0)
(0.928911 -8.12725e-16 0)
(0.929907 -4.01239e-16 0)
(0.92965 -3.7764e-16 0)
(0.928462 6.66155e-16 0)
(0.926726 1.58524e-15 0)
(0.925742 -5.2852e-17 0)
(0.925447 2.87096e-17 0)
(0.925298 -3.77018e-16 0)
(0.924014 -4.91781e-16 0)
(0.915516 5.30793e-17 0)
(0.862483 6.09295e-16 0)
(0.624733 -1.15802e-15 0)
(0.166819 -1.56854e-15 0)
(0.00529817 -6.04353e-17 0)
(1.28918e-05 -1.04082e-16 0)
(1.74326e-09 1.11672e-16 0)
(4.6034e-14 0 0)
(-7.2222e-16 1.10588e-16 0)
(-6.20842e-16 2.10334e-16 0)
(-4.02044e-16 -2.1684e-18 0)
(6.87689e-17 -1.0842e-18 0)
(4.75944e-16 0 0)
(5.84137e-16 -1.8323e-16 0)
(3.80549e-16 -3.26344e-16 0)
(-1.96035e-17 -8.34833e-17 0)
(-5.48359e-16 2.27682e-16 0)
(-8.25192e-16 1.89735e-16 0)
(-7.23098e-16 2.94902e-16 0)
(-6.46182e-16 2.21176e-16 0)
(7.37255e-16 4.85721e-16 0)
(4.77783e-16 1.84314e-16 0)
(-6.42853e-17 1.34441e-16 0)
(-2.96345e-16 -2.08166e-16 0)
(-1.18621e-16 2.1684e-18 0)
(3.0225e-16 8.89043e-17 0)
(4.73696e-16 5.11742e-16 0)
(2.02174e-16 7.8496e-16 0)
(1.06385e-17 5.96309e-16 0)
(2.72127e-16 3.18754e-16 0)
(3.72048e-16 1.49619e-16 0)
(7.4402e-17 -1.49619e-16 0)
(-2.31265e-16 -7.80623e-17 0)
(-7.68468e-18 -2.58039e-16 0)
(2.39531e-16 -4.55363e-17 0)
(-6.8181e-17 4.33679e-17 0)
(-3.6988e-16 3.46943e-16 0)
(-4.99135e-16 1.64798e-16 0)
(-1.98027e-16 0 0)
(6.27104e-17 0 0)
(8.64421e-17 0 0)
(2.85707e-14 -4.03322e-16 0)
(2.92401e-10 -5.44268e-16 0)
(2.9506e-07 3.60388e-15 0)
(3.93395e-05 -1.76947e-14 0)
(0.00100818 5.06753e-15 0)
(0.00759292 -8.26688e-15 0)
(0.0255954 1.75541e-14 0)
(0.0540629 -1.13011e-14 0)
(0.0885078 1.07099e-15 0)
(0.125869 1.22132e-14 0)
(0.164753 -8.64683e-15 0)
(0.204558 1.14737e-14 0)
(0.244989 8.05173e-15 0)
(0.285879 -7.30803e-15 0)
(0.327126 9.24339e-15 0)
(0.368666 2.38448e-15 0)
(0.410458 8.86932e-15 0)
(0.452483 -1.37212e-16 0)
(0.494732 3.13649e-15 0)
(0.537207 1.04171e-14 0)
(0.579914 5.45039e-15 0)
(0.622858 7.75572e-15 0)
(0.666035 3.45428e-15 0)
(0.709415 9.82423e-15 0)
(0.752924 4.49502e-15 0)
(0.796361 1.26002e-14 0)
(0.839247 -2.30708e-15 0)
(0.880033 2.65994e-14 0)
(0.914517 1.79656e-15 0)
(0.933491 1.3606e-14 0)
(0.934796 1.38691e-14 0)
(0.925335 9.87774e-15 0)
(0.926646 9.06126e-15 0)
(0.927574 6.88714e-15 0)
(0.927763 1.60132e-15 0)
(0.927937 1.01774e-14 0)
(0.928146 5.22432e-16 0)
(0.928345 5.77142e-16 0)
(0.928467 2.60777e-15 0)
(0.928261 -7.87321e-16 0)
(0.928099 3.28097e-15 0)
(0.928088 -3.98886e-16 0)
(0.928119 1.19868e-15 0)
(0.928177 4.26356e-16 0)
(0.928367 8.84871e-16 0)
(0.928727 2.62016e-16 0)
(0.929269 3.86175e-16 0)
(0.92992 -1.72008e-16 0)
(0.92609 2.98027e-15 0)
(0.924372 -1.44959e-15 0)
(0.928911 -3.70446e-16 0)
(0.929907 2.1006e-15 0)
(0.92965 1.85331e-15 0)
(0.928462 9.34054e-17 0)
(0.926726 2.5637e-15 0)
(0.925742 -1.42803e-15 0)
(0.925447 2.00455e-16 0)
(0.925298 -9.28202e-16 0)
(0.924014 -1.57831e-15 0)
(0.915516 -1.36615e-15 0)
(0.862483 -1.29065e-17 0)
(0.624733 -2.2252e-15 0)
(0.166819 -3.42923e-15 0)
(0.00529817 -2.41633e-15 0)
(1.28918e-05 -9.83356e-16 0)
(1.74326e-09 5.30173e-16 0)
(4.63353e-14 -1.50704e-16 0)
(-5.49394e-16 2.27682e-16 0)
(-6.62444e-16 4.20669e-16 0)
(-4.15342e-16 2.15755e-16 0)
(3.59176e-17 5.85467e-17 0)
(4.39371e-16 9.10727e-17 0)
(5.98098e-16 -3.83806e-16 0)
(4.09818e-16 -5.70288e-16 0)
(1.35543e-16 -2.98155e-16 0)
(-4.08086e-16 7.58939e-17 0)
(-7.8416e-16 3.95732e-16 0)
(-7.82915e-16 5.42099e-16 0)
(-8.8579e-16 4.57532e-16 0)
(9.67105e-16 2.4286e-16 0)
(5.46697e-16 1.04083e-16 0)
(-6.14762e-17 1.34441e-16 0)
(-3.24785e-16 2.53702e-16 0)
(5.74066e-18 9.97462e-17 0)
(4.05319e-16 2.68881e-16 0)
(6.58306e-16 3.36101e-16 0)
(2.79559e-16 4.48858e-16 0)
(-1.74105e-16 4.14164e-16 0)
(2.98305e-16 2.55871e-16 0)
(9.00314e-20 -4.55363e-17 0)
(-1.54646e-16 -2.60208e-16 0)
(-2.16482e-16 -1.73472e-17 0)
(-2.46113e-17 1.0842e-16 0)
(2.57725e-16 3.03576e-17 0)
(1.25068e-16 -1.47451e-16 0)
(-2.0498e-16 1.30104e-16 0)
(-5.68425e-16 2.38524e-16 0)
(-2.66211e-16 9.10727e-17 0)
(2.50666e-17 1.92987e-16 0)
(-1.19876e-16 7.58939e-17 0)
(2.73852e-14 -6.3534e-16 0)
(2.92402e-10 4.90058e-16 0)
(2.9506e-07 5.22584e-15 0)
(3.93395e-05 -1.47347e-14 0)
(0.00100818 -3.33784e-15 0)
(0.00759292 -2.24349e-15 0)
(0.0255954 1.06601e-14 0)
(0.0540629 -1.08992e-14 0)
(0.0885078 2.74762e-15 0)
(0.125869 1.01992e-14 0)
(0.164753 -9.48853e-15 0)
(0.204558 1.29891e-14 0)
(0.244989 7.16081e-15 0)
(0.285879 -6.06895e-15 0)
(0.327126 8.86581e-15 0)
(0.368666 5.48999e-15 0)
(0.410458 5.33496e-15 0)
(0.452483 -4.64907e-15 0)
(0.494732 7.70949e-15 0)
(0.537207 4.458e-15 0)
(0.579914 3.75469e-15 0)
(0.622858 8.93596e-15 0)
(0.666035 4.17351e-15 0)
(0.709415 7.15301e-15 0)
(0.752924 1.37732e-15 0)
(0.796361 1.0273e-14 0)
(0.839247 -2.28144e-15 0)
(0.880033 2.55839e-14 0)
(0.914517 -2.05518e-15 0)
(0.933491 1.4382e-14 0)
(0.934796 1.5623e-14 0)
(0.925335 1.11407e-14 0)
(0.926646 7.11854e-15 0)
(0.927574 6.4473e-15 0)
(0.927763 8.77147e-16 0)
(0.927937 7.89171e-15 0)
(0.928146 -4.22649e-16 0)
(0.928345 1.16827e-15 0)
(0.928467 4.15438e-15 0)
(0.928261 1.39014e-15 0)
(0.928099 1.51182e-15 0)
(0.928088 -9.69136e-16 0)
(0.928119 1.29466e-15 0)
(0.928177 2.67852e-16 0)
(0.928367 -2.06037e-16 0)
(0.928727 2.57857e-16 0)
(0.929269 -1.94833e-15 0)
(0.92992 2.96897e-16 0)
(0.92609 5.89547e-16 0)
(0.924372 -2.95229e-15 0)
(0.928911 -1.58851e-15 0)
(0.929907 1.07955e-15 0)
(0.92965 1.99133e-15 0)
(0.928462 -5.17322e-16 0)
(0.926726 1.79059e-15 0)
(0.925742 -2.07765e-15 0)
(0.925447 2.7633e-16 0)
(0.925298 -1.04653e-15 0)
(0.924014 -1.04708e-15 0)
(0.915516 -1.19712e-15 0)
(0.862483 -1.58643e-16 0)
(0.624733 -2.04548e-15 0)
(0.166819 -4.58932e-15 0)
(0.00529817 -2.17891e-15 0)
(1.28918e-05 -3.44771e-16 0)
(1.74326e-09 3.53449e-16 0)
(4.66223e-14 -3.8489e-16 0)
(-2.51891e-16 8.45675e-17 0)
(-4.35822e-16 3.13333e-16 0)
(-3.18455e-16 4.09827e-16 0)
(-9.78152e-17 1.94071e-16 0)
(2.0813e-16 9.54094e-17 0)
(3.2659e-16 -1.69135e-16 0)
(5.27994e-16 -3.42607e-16 0)
(2.61221e-16 -1.9624e-16 0)
(-2.4684e-16 -1.12757e-16 0)
(-6.1124e-16 2.20092e-16 0)
(-8.50195e-16 3.39354e-16 0)
(-1.06143e-15 3.18754e-16 0)
(7.52434e-16 -2.1684e-18 0)
(4.28442e-16 2.55871e-16 0)
(7.83889e-18 3.14417e-16 0)
(-1.21551e-17 5.63783e-16 0)
(1.85846e-16 3.72964e-16 0)
(3.99514e-16 5.59446e-16 0)
(4.22357e-16 3.66459e-16 0)
(1.70911e-16 1.14925e-16 0)
(7.07403e-17 1.97324e-16 0)
(-8.91914e-17 -1.25767e-16 0)
(-3.25395e-16 -3.81638e-16 0)
(-6.81622e-17 -1.27935e-16 0)
(-2.24028e-16 2.1684e-16 0)
(1.63231e-17 4.79216e-16 0)
(2.36759e-16 2.64544e-16 0)
(8.67762e-17 3.46943e-17 0)
(-1.02199e-16 1.40946e-16 0)
(-3.81159e-16 4.22837e-16 0)
(-1.20458e-16 2.94902e-16 0)
(9.80568e-17 4.4669e-16 0)
(-8.25872e-17 2.75386e-16 0)
(2.71064e-14 1.58293e-16 0)
(2.92403e-10 2.81892e-16 0)
(2.9506e-07 4.92443e-15 0)
(3.93395e-05 -5.55128e-16 0)
(0.00100818 -7.58718e-15 0)
(0.00759292 1.18504e-15 0)
(0.0255954 4.47966e-15 0)
(0.0540629 -4.49432e-15 0)
(0.0885078 3.18607e-15 0)
(0.125869 5.23301e-15 0)
(0.164753 -1.06325e-14 0)
(0.204558 1.125e-14 0)
(0.244989 6.66244e-15 0)
(0.285879 -3.49079e-15 0)
(0.327126 6.19685e-15 0)
(0.368666 6.51618e-15 0)
(0.410458 3.5701e-15 0)
(0.452483 -6.12127e-15 0)
(0.494732 1.23496e-14 0)
(0.537207 -5.39359e-16 0)
(0.579914 1.53585e-15 0)
(0.622858 9.18752e-15 0)
(0.666035 4.07104e-15 0)
(0.709415 5.87441e-15 0)
(0.752924 6.65096e-16 0)
(0.796361 5.56832e-15 0)
(0.839247 -4.65144e-15 0)
(0.880033 2.4509e-14 0)
(0.914517 -2.16566e-15 0)
(0.933491 1.21056e-14 0)
(0.934796 1.27566e-14 0)
(0.925335 9.25959e-15 0)
(0.926646 4.33093e-15 0)
(0.927574 3.78213e-15 0)
(0.927763 1.03394e-15 0)
(0.927937 1.34554e-15 0)
(0.928146 -1.49039e-16 0)
(0.928345 4.00631e-15 0)
(0.928467 2.06734e-15 0)
(0.928261 2.92661e-15 0)
(0.928099 -1.03955e-16 0)
(0.928088 1.61063e-15 0)
(0.928119 1.4964e-15 0)
(0.928177 -7.6811e-16 0)
(0.928367 -1.55949e-15 0)
(0.928727 1.81029e-15 0)
(0.929269 -7.81495e-16 0)
(0.92992 -1.13955e-15 0)
(0.92609 2.54353e-15 0)
(0.924372 -1.09881e-15 0)
(0.928911 -4.8743e-16 0)
(0.929907 8.11713e-16 0)
(0.92965 7.52715e-16 0)
(0.928462 7.06186e-16 0)
(0.926726 1.77673e-15 0)
(0.925742 1.22329e-15 0)
(0.925447 1.40985e-15 0)
(0.925298 1.10134e-16 0)
(0.924014 1.21511e-15 0)
(0.915516 1.28524e-15 0)
(0.862483 2.74264e-16 0)
(0.624733 1.03385e-15 0)
(0.166819 -3.0066e-16 0)
(0.00529817 -4.41393e-16 0)
(1.28918e-05 -5.43177e-16 0)
(1.74326e-09 -8.54348e-16 0)
(4.69263e-14 -2.7105e-17 0)
(-3.02594e-17 0 0)
(-1.36184e-16 1.30104e-17 0)
(-2.49332e-16 2.01661e-16 0)
(-1.36417e-16 9.64936e-17 0)
(4.51195e-17 2.66713e-16 0)
(2.11032e-16 2.99239e-16 0)
(3.40734e-16 1.13841e-16 0)
(8.45172e-17 -1.50704e-16 0)
(-3.07068e-16 -2.85144e-16 0)
(-5.8806e-16 -3.12962e-32 0)
(-7.70411e-16 8.99885e-17 0)
(-9.68189e-16 1.59377e-16 0)
(9.51926e-16 -2.19008e-16 0)
(5.47671e-16 -9.97462e-17 0)
(3.27885e-17 -4.11995e-17 0)
(-5.74635e-17 2.55871e-16 0)
(2.882e-16 1.92987e-16 0)
(6.23483e-16 2.68881e-16 0)
(2.94298e-16 -5.85467e-17 0)
(1.00819e-16 -3.96817e-16 0)
(-1.85341e-16 -2.62376e-16 0)
(-4.25713e-16 -5.03068e-16 0)
(-9.80049e-17 -1.58293e-16 0)
(1.86756e-16 1.32272e-16 0)
(-4.16211e-17 3.25259e-17 0)
(-2.16055e-16 2.49366e-16 0)
(-4.13454e-17 -4.33679e-18 0)
(2.68536e-16 -8.45675e-17 0)
(1.52029e-16 -1.64798e-16 0)
(-5.06121e-17 3.03576e-17 0)
(1.27893e-17 4.33679e-18 0)
(1.29493e-16 2.81892e-17 0)
(-5.49517e-17 -1.10588e-16 0)
(2.74168e-14 2.99239e-16 0)
(2.92402e-10 4.51026e-16 0)
(2.9506e-07 -7.26413e-16 0)
(3.93395e-05 6.64202e-15 0)
(0.00100818 -8.11455e-15 0)
(0.00759292 4.63539e-15 0)
(0.0255954 -2.85754e-15 0)
(0.0540629 4.79401e-15 0)