/*--------------------------------*- C++ -*----------------------------------*\
| =========                 |                                                 |
| \\      /  F ield         | OpenFOAM: The Open Source CFD Toolbox           |
|  \\    /   O peration     | Version:  4.1                                   |
|   \\  /    A nd           | Web:      www.OpenFOAM.org                      |
|    \\/     M anipulation  |                                                 |
\*---------------------------------------------------------------------------*/
FoamFile
{
    version     2.0;
    format      ascii;
    class       volVectorField;
    location    "0.45";
    object      U;
}
// * * * * * * * * * * * * * * * * * * * * * * * * * * * * * * * * * * * * * //

dimensions      [0 1 -1 0 0 0 0];

internalField   nonuniform List<vector> 
10000
(
(0 0 0)
(2.17674e-16 0 0)
(3.17853e-16 0 0)
(1.03746e-16 1.60461e-16 0)
(-1.20779e-16 0 0)
(-3.15533e-16 0 0)
(-2.98072e-16 0 0)
(-6.65145e-17 0 0)
(-2.65659e-19 0 0)
(2.61485e-16 1.56125e-16 0)
(5.30839e-16 0 0)
(1.93977e-16 -1.56125e-16 0)
(-1.73141e-16 0 0)
(6.61083e-17 0 0)
(1.3833e-16 0 0)
(-3.12624e-17 1.38777e-16 0)
(3.0671e-15 -1.0842e-17 0)
(5.42468e-11 1.36609e-16 0)
(8.07569e-08 5.11742e-16 0)
(1.50432e-05 2.29419e-15 0)
(0.000504111 8.46686e-15 0)
(0.00460666 6.20625e-15 0)
(0.0175489 -2.98881e-15 0)
(0.0397276 1.55841e-14 0)
(0.0675496 -2.1279e-15 0)
(0.0981396 3.65806e-15 0)
(0.130128 -1.92925e-14 0)
(0.162934 -5.62303e-15 0)
(0.196283 -2.49269e-15 0)
(0.230025 1.09471e-14 0)
(0.264066 1.41623e-14 0)
(0.298344 3.04748e-14 0)
(0.332816 2.16073e-14 0)
(0.367455 3.27212e-14 0)
(0.402241 -2.11059e-14 0)
(0.437164 4.77527e-14 0)
(0.472217 6.95252e-15 0)
(0.507399 -2.02037e-16 0)
(0.542712 -1.85239e-14 0)
(0.578159 8.29433e-15 0)
(0.613742 -8.49864e-15 0)
(0.649459 2.43942e-14 0)
(0.685303 -1.34542e-14 0)
(0.721253 9.2589e-14 0)
(0.757269 9.85641e-14 0)
(0.793265 5.01623e-14 0)
(0.829049 8.51289e-14 0)
(0.864053 2.08338e-13 0)
(0.896634 -2.12121e-13 0)
(0.922207 5.79945e-15 0)
(0.933731 1.01515e-13 0)
(0.932353 8.29188e-14 0)
(0.925662 6.61189e-14 0)
(0.92691 3.59979e-14 0)
(0.927596 1.50785e-14 0)
(0.927781 6.80871e-15 0)
(0.927934 1.66068e-15 0)
(0.92814 2.72908e-15 0)
(0.928417 1.01713e-14 0)
(0.928459 1.87648e-14 0)
(0.928292 1.73128e-14 0)
(0.928178 1.5371e-14 0)
(0.928196 1.56535e-14 0)
(0.928197 1.55704e-14 0)
(0.928143 9.03219e-15 0)
(0.928064 3.87891e-15 0)
(0.927993 7.75065e-15 0)
(0.927963 4.71656e-16 0)
(0.928035 4.10869e-15 0)
(0.928309 8.27973e-15 0)
(0.928702 -2.05469e-16 0)
(0.928726 -8.70059e-15 0)
(0.928883 -2.26039e-14 0)
(0.929665 -2.71954e-14 0)
(0.927322 -2.24247e-14 0)
(0.925895 -1.11829e-14 0)
(0.925882 -7.61622e-15 0)
(0.925973 -4.60568e-15 0)
(0.926392 -3.34947e-15 0)
(0.927301 -2.90402e-15 0)
(0.928508 -4.62915e-15 0)
(0.928959 -7.10398e-15 0)
(0.928479 -9.39796e-15 0)
(0.927799 -1.08294e-14 0)
(0.926937 -1.03695e-14 0)
(0.925961 -1.03182e-14 0)
(0.9239 -7.64534e-15 0)
(0.914422 -7.18348e-15 0)
(0.86114 -5.99185e-15 0)
(0.625974 -3.30729e-15 0)
(0.169861 -1.96151e-16 0)
(0.00556002 9.49478e-16 0)
(1.40722e-05 4.00064e-16 0)
(1.99833e-09 1.4203e-16 0)
(5.45368e-14 0 0)
(-2.33748e-16 2.38524e-17 0)
(-3.84616e-16 2.64544e-16 0)
(-3.91472e-16 2.27682e-16 0)
(-3.83375e-16 1.50704e-16 0)
(-2.48281e-16 2.33103e-16 0)
(0 0 0)
(2.39269e-16 0 0)
(3.2226e-16 1.38777e-16 0)
(1.05008e-16 3.44775e-16 0)
(-1.2178e-16 1.30104e-16 0)
(-3.24489e-16 2.68881e-16 0)
(-3.36188e-16 5.42099e-17 0)
(-7.35417e-17 0 0)
(-2.05359e-18 0 0)
(2.53108e-16 0 0)
(5.59668e-16 0 0)
(2.00981e-16 0 0)
(-1.55998e-16 0 0)
(8.04838e-17 0 0)
(1.67787e-16 1.30104e-16 0)
(-2.86041e-17 3.20923e-16 0)
(2.98396e-15 1.23599e-16 0)
(5.42475e-11 1.03649e-15 0)
(8.07569e-08 9.17232e-16 0)
(1.50432e-05 9.43698e-15 0)
(0.000504111 1.54911e-14 0)
(0.00460666 2.23782e-15 0)
(0.0175489 1.10045e-17 0)
(0.0397276 2.47471e-14 0)
(0.0675496 -1.53879e-15 0)
(0.0981396 -6.24688e-15 0)
(0.130128 -6.40699e-15 0)
(0.162934 2.11082e-14 0)
(0.196283 3.08314e-15 0)
(0.230025 -1.08903e-14 0)
(0.264066 2.63982e-14 0)
(0.298344 1.82192e-14 0)
(0.332816 1.1115e-14 0)
(0.367455 2.67071e-14 0)
(0.402241 -5.87474e-15 0)
(0.437164 3.79478e-14 0)
(0.472217 -4.74514e-15 0)
(0.507399 7.24447e-15 0)
(0.542712 1.31697e-14 0)
(0.578159 1.41814e-14 0)
(0.613742 -4.33135e-15 0)
(0.649459 2.3661e-14 0)
(0.685303 1.15777e-14 0)
(0.721253 6.70318e-14 0)
(0.757269 3.18574e-14 0)
(0.793265 4.28817e-14 0)
(0.829049 5.19895e-14 0)
(0.864053 1.157e-13 0)
(0.896634 -4.99916e-14 0)
(0.922207 2.87948e-14 0)
(0.933731 7.00577e-14 0)
(0.932353 6.25974e-14 0)
(0.925662 5.29122e-14 0)
(0.92691 3.49824e-14 0)
(0.927596 1.74243e-14 0)
(0.927781 1.00919e-14 0)
(0.927934 3.99054e-15 0)
(0.92814 7.07302e-15 0)
(0.928417 7.73059e-15 0)
(0.928459 7.81507e-15 0)
(0.928292 1.86556e-14 0)
(0.928178 1.96245e-14 0)
(0.928196 1.92315e-14 0)
(0.928197 1.81298e-14 0)
(0.928143 1.05253e-14 0)
(0.928064 9.1358e-15 0)
(0.927993 7.50178e-15 0)
(0.927963 1.15764e-15 0)
(0.928035 3.31831e-15 0)
(0.928309 5.20911e-15 0)
(0.928702 -9.56011e-16 0)
(0.928726 -1.0124e-15 0)
(0.928883 -8.20085e-15 0)
(0.929665 -1.77296e-14 0)
(0.927322 -1.24795e-14 0)
(0.925895 -4.38767e-15 0)
(0.925882 -4.50007e-15 0)
(0.925973 -1.67306e-15 0)
(0.926392 2.3157e-15 0)
(0.927301 5.01305e-15 0)
(0.928508 1.78615e-15 0)
(0.928959 -2.31297e-15 0)
(0.928479 -4.89307e-16 0)
(0.927799 -1.81078e-15 0)
(0.926937 -1.75736e-15 0)
(0.925961 -3.73724e-15 0)
(0.9239 -1.98347e-15 0)
(0.914422 -1.70451e-15 0)
(0.86114 -5.20829e-15 0)
(0.625974 -3.0841e-15 0)
(0.169861 -5.9015e-15 0)
(0.00556002 6.73266e-16 0)
(1.40722e-05 9.87692e-16 0)
(1.99833e-09 7.15571e-17 0)
(5.45042e-14 6.83045e-17 0)
(-2.3056e-16 9.32411e-17 0)
(-4.07447e-16 3.87059e-16 0)
(-4.49891e-16 4.33679e-16 0)
(-4.95577e-16 3.43691e-16 0)
(-4.54279e-16 4.391e-16 0)
(0 0 0)
(2.59405e-16 0 0)
(5.28147e-16 0 0)
(1.16501e-16 1.0842e-16 0)
(-3.57482e-16 3.44775e-16 0)
(-3.24742e-16 5.96309e-16 0)
(-3.59381e-16 2.77555e-16 0)
(-5.71852e-17 0 0)
(-1.06536e-17 0 0)
(2.56446e-16 0 0)
(5.82385e-16 0 0)
(2.25877e-16 2.1684e-18 0)
(-1.27782e-16 1.2143e-16 0)
(9.05492e-17 3.40438e-16 0)
(2.98638e-16 2.1684e-16 0)
(6.5544e-17 1.38777e-16 0)
(2.799e-15 7.15571e-17 0)
(5.42496e-11 2.74519e-15 0)
(8.07569e-08 1.39211e-15 0)
(1.50432e-05 1.84511e-14 0)
(0.000504111 1.72201e-14 0)
(0.00460666 -3.25442e-15 0)
(0.0175489 8.04867e-15 0)
(0.0397276 2.47437e-14 0)
(0.0675496 6.11039e-15 0)
(0.0981396 -9.90022e-15 0)
(0.130128 -4.3396e-15 0)
(0.162934 2.6836e-14 0)
(0.196283 6.70024e-15 0)
(0.230025 -1.66084e-14 0)
(0.264066 2.82007e-14 0)
(0.298344 1.51897e-14 0)
(0.332816 9.50586e-15 0)
(0.367455 2.23635e-14 0)
(0.402241 -1.47254e-15 0)
(0.437164 3.49793e-14 0)
(0.472217 -5.83322e-15 0)
(0.507399 1.01749e-14 0)
(0.542712 2.26764e-14 0)
(0.578159 1.45785e-14 0)
(0.613742 -1.53566e-15 0)
(0.649459 2.34263e-14 0)
(0.685303 2.48925e-14 0)
(0.721253 5.70877e-14 0)
(0.757269 1.04542e-14 0)
(0.793265 3.90771e-14 0)
(0.829049 3.21831e-14 0)
(0.864053 7.79e-14 0)
(0.896634 -9.49667e-15 0)
(0.922207 3.20437e-14 0)
(0.933731 4.52529e-14 0)
(0.932353 4.06523e-14 0)
(0.925662 3.81738e-14 0)
(0.92691 2.83879e-14 0)
(0.927596 1.63622e-14 0)
(0.927781 9.61566e-15 0)
(0.927934 3.79835e-15 0)
(0.92814 7.47435e-15 0)
(0.928417 8.36688e-15 0)
(0.928459 3.4105e-15 0)
(0.928292 1.65281e-14 0)
(0.928178 1.71431e-14 0)
(0.928196 1.78627e-14 0)
(0.928197 1.65598e-14 0)
(0.928143 1.13958e-14 0)
(0.928064 1.01281e-14 0)
(0.927993 5.34515e-15 0)
(0.927963 3.99775e-16 0)
(0.928035 8.9185e-16 0)
(0.928309 4.00309e-15 0)
(0.928702 -2.24542e-15 0)
(0.928726 -7.64091e-16 0)
(0.928883 -4.56514e-15 0)
(0.929665 -1.1789e-14 0)
(0.927322 -4.27267e-15 0)
(0.925895 1.73892e-15 0)
(0.925882 1.44875e-15 0)
(0.925973 3.50042e-15 0)
(0.926392 4.23681e-15 0)
(0.927301 4.19447e-15 0)
(0.928508 2.78619e-15 0)
(0.928959 6.58732e-16 0)
(0.928479 4.29803e-15 0)
(0.927799 5.03811e-15 0)
(0.926937 1.17515e-15 0)
(0.925961 -8.35835e-16 0)
(0.9239 6.79404e-16 0)
(0.914422 1.31485e-15 0)
(0.86114 -1.92661e-15 0)
(0.625974 1.52052e-15 0)
(0.169861 -3.06392e-15 0)
(0.00556002 1.1383e-15 0)
(1.40722e-05 2.4882e-15 0)
(1.99833e-09 -3.33933e-16 0)
(5.44135e-14 3.48028e-16 0)
(-1.09182e-16 1.71303e-16 0)
(-3.26784e-16 4.29343e-16 0)
(-5.4072e-16 6.34256e-16 0)
(-6.07526e-16 5.45352e-16 0)
(-6.64614e-16 6.45098e-16 0)
(-2.1684e-18 -2.1684e-18 0)
(2.70911e-16 -2.1684e-18 0)
(5.76793e-16 -2.1684e-18 0)
(1.73215e-16 3.90311e-17 0)
(-3.07474e-16 2.86228e-16 0)
(-6.94909e-16 2.21176e-16 0)
(-3.77554e-16 -2.1684e-18 0)
(-2.97468e-17 -2.1684e-18 0)
(-2.64453e-17 0 0)
(1.95154e-16 0 0)
(4.27282e-16 -4.33679e-18 0)
(2.5513e-16 -3.90311e-17 0)
(1.55549e-16 3.29596e-16 0)
(1.73732e-16 6.91718e-16 0)
(2.05331e-16 3.90311e-16 0)
(-4.95928e-17 1.14925e-16 0)
(3.01473e-15 4.11995e-17 0)
(5.42526e-11 1.6328e-15 0)
(8.07569e-08 1.64581e-15 0)
(1.50432e-05 2.1166e-14 0)
(0.000504111 1.44347e-14 0)
(0.00460666 -7.76707e-15 0)
(0.0175489 1.2741e-14 0)
(0.0397276 2.00193e-14 0)
(0.0675496 7.55962e-15 0)
(0.0981396 -1.07254e-14 0)
(0.130128 -5.42904e-15 0)
(0.162934 2.81077e-14 0)
(0.196283 9.8129e-15 0)
(0.230025 -1.7682e-14 0)
(0.264066 2.74868e-14 0)
(0.298344 1.37486e-14 0)
(0.332816 7.72433e-15 0)
(0.367455 2.15268e-14 0)
(0.402241 -7.07744e-16 0)
(0.437164 3.16097e-14 0)
(0.472217 -6.39534e-15 0)
(0.507399 1.15229e-14 0)
(0.542712 2.78166e-14 0)
(0.578159 1.17796e-14 0)
(0.613742 1.65848e-15 0)
(0.649459 2.23538e-14 0)
(0.685303 3.01234e-14 0)
(0.721253 4.71218e-14 0)
(0.757269 3.49622e-15 0)
(0.793265 3.66536e-14 0)
(0.829049 1.54312e-14 0)
(0.864053 6.30906e-14 0)
(0.896634 4.44436e-15 0)
(0.922207 2.26234e-14 0)
(0.933731 3.3993e-14 0)
(0.932353 3.26847e-14 0)
(0.925662 3.52486e-14 0)
(0.92691 2.43677e-14 0)
(0.927596 1.59819e-14 0)
(0.927781 9.79189e-15 0)
(0.927934 5.82623e-15 0)
(0.92814 9.83425e-15 0)
(0.928417 7.21972e-15 0)
(0.928459 3.04902e-15 0)
(0.928292 1.05987e-14 0)
(0.928178 1.41096e-14 0)
(0.928196 1.73275e-14 0)
(0.928197 1.38049e-14 0)
(0.928143 6.82015e-15 0)
(0.928064 8.7047e-15 0)
(0.927993 7.61106e-15 0)
(0.927963 3.68135e-15 0)
(0.928035 3.1527e-15 0)
(0.928309 2.77019e-15 0)
(0.928702 -2.37646e-15 0)
(0.928726 2.3881e-15 0)
(0.928883 3.39159e-16 0)
(0.929665 -4.84269e-15 0)
(0.927322 9.90949e-16 0)
(0.925895 1.00344e-15 0)
(0.925882 4.26702e-15 0)
(0.925973 5.06856e-15 0)
(0.926392 4.81124e-15 0)
(0.927301 6.59585e-15 0)
(0.928508 7.8693e-15 0)
(0.928959 6.19075e-15 0)
(0.928479 7.75178e-15 0)
(0.927799 7.43972e-15 0)
(0.926937 2.94835e-15 0)
(0.925961 2.8728e-15 0)
(0.9239 2.69408e-15 0)
(0.914422 2.49363e-15 0)
(0.86114 -6.85075e-16 0)
(0.625974 1.71955e-15 0)
(0.169861 -1.9153e-15 0)
(0.00556002 3.03186e-16 0)
(1.40722e-05 1.3368e-15 0)
(1.99833e-09 1.04408e-15 0)
(5.41805e-14 7.12318e-16 0)
(-1.98138e-16 4.38016e-16 0)
(-2.07045e-16 3.08997e-16 0)
(-4.19507e-16 3.97901e-16 0)
(-7.3063e-16 2.95986e-16 0)
(-9.25905e-16 3.90311e-16 0)
(-2.1684e-18 2.1684e-18 0)
(2.85358e-16 2.1684e-18 0)
(6.2094e-16 2.1684e-18 0)
(1.79037e-16 1.64798e-16 0)
(-6.44235e-16 -1.6263e-16 0)
(-6.7382e-16 -5.44268e-16 0)
(-3.2789e-16 -2.40692e-16 0)
(1.11392e-17 2.1684e-18 0)
(-3.57718e-17 0 0)
(2.08691e-16 -2.1684e-18 0)
(4.52009e-16 1.25767e-16 0)
(2.69901e-16 3.03576e-16 0)
(3.62972e-16 1.40946e-16 0)
(1.79073e-16 3.23091e-16 0)
(1.43867e-16 1.10588e-16 0)
(-2.73483e-17 9.97462e-17 0)
(2.85767e-15 1.0842e-17 0)
(5.42532e-11 5.65951e-16 0)
(8.07569e-08 -5.07405e-16 0)
(1.50432e-05 1.83167e-14 0)
(0.000504111 7.19564e-15 0)
(0.00460666 -5.90584e-15 0)
(0.0175489 1.05181e-14 0)
(0.0397276 1.50144e-14 0)
(0.0675496 9.99528e-15 0)
(0.0981396 -8.72488e-15 0)
(0.130128 -5.81561e-15 0)
(0.162934 2.62375e-14 0)
(0.196283 1.09951e-14 0)
(0.230025 -2.04373e-14 0)
(0.264066 2.25603e-14 0)
(0.298344 7.64188e-15 0)
(0.332816 4.81883e-15 0)
(0.367455 1.87057e-14 0)
(0.402241 -3.1887e-15 0)
(0.437164 2.75142e-14 0)
(0.472217 -8.49753e-15 0)
(0.507399 1.064e-14 0)
(0.542712 3.10182e-14 0)
(0.578159 8.28073e-15 0)
(0.613742 5.03168e-15 0)
(0.649459 1.70696e-14 0)
(0.685303 3.02649e-14 0)
(0.721253 3.53413e-14 0)
(0.757269 3.22414e-15 0)
(0.793265 2.98141e-14 0)
(0.829049 9.28087e-15 0)
(0.864053 5.22358e-14 0)
(0.896634 6.02898e-15 0)
(0.922207 2.04271e-14 0)
(0.933731 2.832e-14 0)
(0.932353 2.35962e-14 0)
(0.925662 2.61616e-14 0)
(0.92691 1.68114e-14 0)
(0.927596 1.34317e-14 0)
(0.927781 9.3809e-15 0)
(0.927934 6.77128e-15 0)
(0.92814 1.08575e-14 0)
(0.928417 4.96169e-15 0)
(0.928459 8.42602e-16 0)
(0.928292 7.50934e-15 0)
(0.928178 1.47786e-14 0)
(0.928196 1.68676e-14 0)
(0.928197 8.95663e-15 0)
(0.928143 6.57086e-15 0)
(0.928064 4.15981e-15 0)
(0.927993 6.02309e-15 0)
(0.927963 6.36227e-15 0)
(0.928035 2.58222e-15 0)
(0.928309 2.10551e-15 0)
(0.928702 -4.22025e-15 0)
(0.928726 7.56254e-15 0)
(0.928883 1.7708e-15 0)
(0.929665 -1.71849e-15 0)
(0.927322 7.10665e-15 0)
(0.925895 -3.33588e-15 0)
(0.925882 3.00914e-15 0)
(0.925973 8.9902e-16 0)
(0.926392 1.67808e-15 0)
(0.927301 7.52265e-15 0)
(0.928508 1.09303e-14 0)
(0.928959 7.22203e-15 0)
(0.928479 9.10836e-15 0)
(0.927799 8.36859e-15 0)
(0.926937 6.01314e-15 0)
(0.925961 7.59251e-15 0)
(0.9239 2.83221e-15 0)
(0.914422 2.26014e-15 0)
(0.86114 2.47122e-15 0)
(0.625974 1.57142e-15 0)
(0.169861 -4.63972e-16 0)
(0.00556002 -1.09406e-15 0)
(1.40722e-05 -1.32379e-15 0)
(1.99833e-09 2.74736e-15 0)
(5.3985e-14 9.8662e-16 0)
(-2.98827e-16 6.70035e-16 0)
(-4.32842e-16 2.34187e-16 0)
(-6.35493e-16 -1.02999e-16 0)
(-9.2145e-16 -5.09573e-17 0)
(-1.11672e-15 -1.79977e-16 0)
(8.67359e-18 0 0)
(2.78444e-16 -2.81892e-17 0)
(3.52282e-16 -2.68881e-16 0)
(-1.15911e-16 -5.18247e-16 0)
(-7.20502e-16 -6.28835e-16 0)
(-3.78143e-16 -2.81892e-16 0)
(-2.83191e-17 -2.1684e-17 0)
(8.27773e-17 0 0)
(-3.0363e-17 0 0)
(2.2219e-16 9.32411e-17 0)
(4.78949e-16 4.01153e-16 0)
(2.71779e-16 5.98477e-16 0)
(-1.1465e-17 3.12249e-16 0)
(5.05768e-17 -5.63783e-17 0)
(2.68752e-16 -6.50519e-17 0)
(5.49642e-17 -1.01915e-16 0)
(2.99813e-15 3.03576e-17 0)
(5.42543e-11 6.15825e-16 0)
(8.07569e-08 -1.53306e-15 0)
(1.50432e-05 1.51486e-14 0)
(0.000504111 9.30639e-16 0)
(0.00460666 -6.67863e-15 0)
(0.0175489 1.1394e-14 0)
(0.0397276 1.20999e-14 0)
(0.0675496 8.48978e-15 0)
(0.0981396 -5.10572e-15 0)
(0.130128 -8.82946e-15 0)
(0.162934 2.20109e-14 0)
(0.196283 8.12757e-15 0)
(0.230025 -1.83166e-14 0)
(0.264066 1.95275e-14 0)
(0.298344 3.28653e-15 0)
(0.332816 4.47991e-15 0)
(0.367455 1.72743e-14 0)
(0.402241 -4.45308e-15 0)
(0.437164 2.25258e-14 0)
(0.472217 -7.46369e-15 0)
(0.507399 9.79285e-15 0)
(0.542712 3.05691e-14 0)
(0.578159 4.56787e-15 0)
(0.613742 7.03704e-15 0)
(0.649459 1.16225e-14 0)
(0.685303 2.59079e-14 0)
(0.721253 2.63601e-14 0)
(0.757269 3.80057e-15 0)
(0.793265 1.85607e-14 0)
(0.829049 1.071e-14 0)
(0.864053 4.24318e-14 0)
(0.896634 6.36071e-15 0)
(0.922207 2.13772e-14 0)
(0.933731 2.36459e-14 0)
(0.932353 1.89338e-14 0)
(0.925662 1.73279e-14 0)
(0.92691 1.40164e-14 0)
(0.927596 1.14064e-14 0)
(0.927781 7.97138e-15 0)
(0.927934 4.85763e-15 0)
(0.92814 8.56471e-15 0)
(0.928417 7.75064e-16 0)
(0.928459 3.5766e-16 0)
(0.928292 5.42923e-15 0)
(0.928178 1.4381e-14 0)
(0.928196 1.50112e-14 0)
(0.928197 6.52535e-15 0)
(0.928143 6.83447e-15 0)
(0.928064 2.14717e-15 0)
(0.927993 3.56505e-15 0)
(0.927963 5.54893e-15 0)
(0.928035 2.97283e-16 0)
(0.928309 3.18677e-15 0)
(0.928702 -1.812e-15 0)
(0.928726 8.16564e-15 0)
(0.928883 2.74216e-15 0)
(0.929665 -2.47488e-15 0)
(0.927322 7.40123e-15 0)
(0.925895 -1.36912e-15 0)
(0.925882 2.30534e-15 0)
(0.925973 5.25114e-16 0)
(0.926392 -1.52599e-16 0)
(0.927301 6.17835e-15 0)
(0.928508 9.52801e-15 0)
(0.928959 6.47387e-15 0)
(0.928479 7.84116e-15 0)
(0.927799 8.6372e-15 0)
(0.926937 3.25886e-15 0)
(0.925961 6.25701e-15 0)
(0.9239 1.65656e-15 0)
(0.914422 2.06221e-15 0)
(0.86114 3.44314e-15 0)
(0.625974 1.88401e-15 0)
(0.169861 1.01753e-15 0)
(0.00556002 -9.49478e-16 0)
(1.40722e-05 -2.18029e-15 0)
(1.99832e-09 1.03758e-15 0)
(5.3828e-14 5.76793e-16 0)
(-3.80058e-16 4.41269e-16 0)
(-6.68076e-16 2.1684e-18 0)
(-8.90002e-16 -2.39608e-16 0)
(-7.8687e-16 -2.2985e-16 0)
(-8.90127e-16 -3.33933e-16 0)
(6.93887e-17 0 0)
(3.22852e-16 -2.32018e-16 0)
(2.16579e-17 -6.00646e-16 0)
(-1.82381e-16 -9.80115e-16 0)
(-3.84589e-16 -7.74118e-16 0)
(-4.75546e-17 -3.94648e-16 0)
(2.66837e-16 -2.1684e-17 0)
(1.99298e-16 3.90311e-17 0)
(-2.87262e-18 0 0)
(2.35582e-16 0 0)
(4.31401e-16 1.32272e-16 0)
(4.39348e-17 3.05744e-16 0)
(-2.72365e-16 4.33679e-17 0)
(-2.28832e-17 -5.20415e-17 0)
(1.61365e-16 0 0)
(1.79577e-18 -9.75778e-17 0)
(3.29958e-15 1.0842e-17 0)
(5.42547e-11 -1.73472e-17 0)
(8.07569e-08 -5.85467e-16 0)
(1.50432e-05 3.88798e-15 0)
(0.000504111 -9.5884e-16 0)
(0.00460666 -2.68843e-15 0)
(0.0175489 9.03247e-15 0)
(0.0397276 1.16783e-14 0)
(0.0675496 1.86493e-15 0)
(0.0981396 8.74728e-16 0)
(0.130128 -1.15997e-14 0)
(0.162934 2.0708e-14 0)
(0.196283 4.87372e-15 0)
(0.230025 -1.39576e-14 0)
(0.264066 1.93463e-14 0)
(0.298344 2.3413e-15 0)
(0.332816 3.36464e-15 0)
(0.367455 1.82918e-14 0)
(0.402241 -3.733e-15 0)
(0.437164 1.60953e-14 0)
(0.472217 -4.88649e-15 0)
(0.507399 8.2954e-15 0)
(0.542712 2.6064e-14 0)
(0.578159 3.06187e-15 0)
(0.613742 7.71018e-15 0)
(0.649459 1.00466e-14 0)
(0.685303 2.26237e-14 0)
(0.721253 1.94696e-14 0)
(0.757269 8.36576e-15 0)
(0.793265 1.11565e-14 0)
(0.829049 1.66758e-14 0)
(0.864053 3.14564e-14 0)
(0.896634 2.7845e-15 0)
(0.922207 2.14607e-14 0)
(0.933731 2.39477e-14 0)
(0.932353 2.00878e-14 0)
(0.925662 1.45541e-14 0)
(0.92691 1.14002e-14 0)
(0.927596 1.11813e-14 0)
(0.927781 4.66468e-15 0)
(0.927934 4.6508e-15 0)
(0.92814 6.61314e-15 0)
(0.928417 1.82928e-15 0)
(0.928459 5.45177e-15 0)
(0.928292 4.88742e-15 0)
(0.928178 1.07517e-14 0)
(0.928196 1.07756e-14 0)
(0.928197 7.0668e-15 0)
(0.928143 5.79499e-15 0)
(0.928064 3.9898e-15 0)
(0.927993 2.83134e-15 0)
(0.927963 6.08558e-15 0)
(0.928035 1.54784e-15 0)
(0.928309 3.04122e-15 0)
(0.928702 2.44702e-15 0)
(0.928726 6.61999e-15 0)
(0.928883 3.51505e-15 0)
(0.929665 -1.16036e-15 0)
(0.927322 5.55973e-15 0)
(0.925895 2.8303e-15 0)
(0.925882 2.2292e-15 0)
(0.925973 1.31304e-15 0)
(0.926392 1.1951e-15 0)
(0.927301 4.70993e-15 0)
(0.928508 7.05145e-15 0)
(0.928959 5.19013e-15 0)
(0.928479 5.49678e-15 0)
(0.927799 6.78557e-15 0)
(0.926937 2.90749e-15 0)
(0.925961 3.48179e-15 0)
(0.9239 1.9891e-15 0)
(0.914422 1.72977e-15 0)
(0.86114 2.29094e-15 0)
(0.625974 1.4396e-15 0)
(0.169861 -6.20516e-16 0)
(0.00556002 -8.11372e-16 0)
(1.40722e-05 -4.04401e-16 0)
(1.99832e-09 5.20415e-17 0)
(5.38178e-14 2.05998e-17 0)
(-4.95798e-16 1.61546e-16 0)
(-7.61288e-16 1.05167e-16 0)
(-7.74775e-16 -4.87889e-17 0)
(-6.74231e-16 -3.25259e-17 0)
(-6.81961e-16 -1.23599e-16 0)
(4.48858e-16 1.99492e-16 0)
(4.3582e-16 0 0)
(8.51492e-18 -2.53702e-16 0)
(-1.4253e-16 -6.15825e-16 0)
(-1.05231e-16 -3.94648e-16 0)
(1.04473e-16 -5.20415e-17 0)
(4.35624e-16 2.60208e-16 0)
(2.36059e-16 4.597e-16 0)
(3.12017e-17 2.99239e-16 0)
(2.76181e-16 9.10727e-17 0)
(4.42115e-16 0 0)
(7.09846e-17 0 0)
(-2.95773e-16 0 0)
(-2.28529e-17 -7.37255e-17 0)
(1.41813e-16 0 0)
(-1.74937e-17 9.75778e-17 0)
(3.17798e-15 1.06251e-16 0)
(5.42541e-11 -4.25006e-16 0)
(8.07569e-08 -1.35958e-15 0)
(1.50432e-05 -2.73221e-15 0)
(0.000504111 -4.34298e-15 0)
(0.00460666 5.22231e-15 0)
(0.0175489 5.07306e-15 0)
(0.0397276 8.3208e-15 0)
(0.0675496 -4.45791e-15 0)
(0.0981396 8.99838e-15 0)
(0.130128 -1.34987e-14 0)
(0.162934 1.84288e-14 0)
(0.196283 1.62885e-15 0)
(0.230025 -1.12591e-14 0)
(0.264066 1.91011e-14 0)
(0.298344 1.04916e-15 0)
(0.332816 3.79047e-15 0)
(0.367455 1.87296e-14 0)
(0.402241 -1.68532e-15 0)
(0.437164 1.06994e-14 0)
(0.472217 -2.51474e-15 0)
(0.507399 7.50932e-15 0)
(0.542712 1.8873e-14 0)
(0.578159 2.23225e-15 0)
(0.613742 8.42832e-15 0)
(0.649459 8.45237e-15 0)
(0.685303 1.85417e-14 0)
(0.721253 1.24712e-14 0)
(0.757269 1.3032e-14 0)
(0.793265 1.59601e-15 0)
(0.829049 2.40604e-14 0)
(0.864053 2.19723e-14 0)
(0.896634 7.97863e-16 0)
(0.922207 2.45401e-14 0)
(0.933731 2.36914e-14 0)
(0.932353 1.87245e-14 0)
(0.925662 1.40184e-14 0)
(0.92691 1.07263e-14 0)
(0.927596 8.63202e-15 0)
(0.927781 3.11901e-15 0)
(0.927934 4.76281e-15 0)
(0.92814 6.08769e-15 0)
(0.928417 3.06333e-15 0)
(0.928459 7.43481e-15 0)
(0.928292 5.43495e-15 0)
(0.928178 9.39274e-15 0)
(0.928196 7.19224e-15 0)
(0.928197 6.48943e-15 0)
(0.928143 3.83765e-15 0)
(0.928064 5.15367e-15 0)
(0.927993 2.55282e-15 0)
(0.927963 6.95045e-15 0)
(0.928035 2.90462e-15 0)
(0.928309 8.74041e-16 0)
(0.928702 1.16226e-15 0)
(0.928726 3.52487e-15 0)
(0.928883 2.97696e-15 0)
(0.929665 2.43473e-15 0)
(0.927322 3.36238e-15 0)
(0.925895 4.01787e-15 0)
(0.925882 2.06251e-15 0)
(0.925973 2.15395e-15 0)
(0.926392 3.52673e-15 0)
(0.927301 3.48564e-15 0)
(0.928508 3.88296e-15 0)
(0.928959 3.52874e-15 0)
(0.928479 2.54868e-15 0)
(0.927799 4.23689e-15 0)
(0.926937 2.70576e-15 0)
(0.925961 1.88012e-15 0)
(0.9239 1.99677e-15 0)
(0.914422 1.92924e-15 0)
(0.86114 8.48675e-16 0)
(0.625974 1.44025e-15 0)
(0.169861 2.60277e-16 0)
(0.00556002 -4.42371e-16 0)
(1.40722e-05 7.52424e-16 0)
(1.99832e-09 -4.391e-16 0)
(5.40782e-14 -4.0549e-16 0)
(-2.08417e-16 -3.03576e-17 0)
(-6.81096e-16 2.33103e-16 0)
(-9.35327e-16 1.99492e-16 0)
(-8.3423e-16 2.99239e-16 0)
(-8.05559e-16 2.34187e-16 0)
(8.54348e-16 4.87889e-16 0)
(5.81715e-16 1.84314e-16 0)
(-9.61149e-18 1.2143e-16 0)
(-3.06367e-16 -2.34187e-16 0)
(-1.59469e-16 2.1684e-18 0)
(2.76794e-16 1.49619e-16 0)
(5.0016e-16 5.87635e-16 0)
(2.40696e-16 8.43506e-16 0)
(3.37814e-17 6.3534e-16 0)
(2.85293e-16 3.40438e-16 0)
(3.75695e-16 1.56125e-16 0)
(6.97237e-17 -1.56125e-16 0)
(-2.37888e-16 -7.80623e-17 0)
(-1.2513e-17 -2.55871e-16 0)
(1.89444e-16 -5.20415e-17 0)
(3.40577e-17 5.63783e-17 0)
(3.11679e-15 3.68627e-16 0)
(5.42533e-11 -1.39645e-15 0)
(8.07569e-08 -2.28332e-15 0)
(1.50432e-05 -8.39397e-15 0)
(0.000504111 -5.62939e-15 0)
(0.00460666 4.54312e-15 0)
(0.0175489 2.67409e-15 0)
(0.0397276 5.81671e-15 0)
(0.0675496 -9.9459e-15 0)
(0.0981396 1.30266e-14 0)
(0.130128 -1.08738e-14 0)
(0.162934 1.7182e-14 0)
(0.196283 -4.96742e-16 0)
(0.230025 -6.35012e-15 0)
(0.264066 1.98354e-14 0)
(0.298344 2.19102e-16 0)
(0.332816 5.3475e-15 0)
(0.367455 2.05555e-14 0)
(0.402241 2.23425e-15 0)
(0.437164 8.12884e-15 0)
(0.472217 1.03713e-15 0)
(0.507399 9.48045e-15 0)
(0.542712 1.12575e-14 0)
(0.578159 8.39588e-16 0)
(0.613742 9.05553e-15 0)
(0.649459 7.52723e-15 0)
(0.685303 1.51801e-14 0)
(0.721253 8.26667e-15 0)
(0.757269 1.60013e-14 0)
(0.793265 -5.84832e-15 0)
(0.829049 2.84459e-14 0)
(0.864053 1.56034e-14 0)
(0.896634 -1.53283e-15 0)
(0.922207 2.88188e-14 0)
(0.933731 2.25274e-14 0)
(0.932353 1.69999e-14 0)
(0.925662 1.1513e-14 0)
(0.92691 9.45598e-15 0)
(0.927596 5.45376e-15 0)
(0.927781 2.38578e-17 0)
(0.927934 6.18643e-15 0)
(0.92814 4.89357e-15 0)
(0.928417 4.60901e-15 0)
(0.928459 1.05017e-14 0)
(0.928292 7.00569e-15 0)
(0.928178 8.77937e-15 0)
(0.928196 4.09128e-15 0)
(0.928197 6.13366e-15 0)
(0.928143 3.66477e-15 0)
(0.928064 6.23189e-15 0)
(0.927993 2.47094e-15 0)
(0.927963 5.52366e-15 0)
(0.928035 4.79726e-15 0)
(0.928309 -1.2053e-15 0)
(0.928702 1.34175e-15 0)
(0.928726 1.09971e-15 0)
(0.928883 2.51481e-15 0)
(0.929665 7.56789e-15 0)
(0.927322 1.76135e-15 0)
(0.925895 4.0045e-15 0)
(0.925882 1.99872e-15 0)
(0.925973 3.98233e-15 0)
(0.926392 4.81329e-15 0)
(0.927301 1.5628e-15 0)
(0.928508 6.71981e-16 0)
(0.928959 1.69257e-15 0)
(0.928479 1.36373e-16 0)
(0.927799 2.10747e-15 0)
(0.926937 -2.0735e-16 0)
(0.925961 3.67338e-16 0)
(0.9239 7.04472e-16 0)
(0.914422 6.00985e-16 0)
(0.86114 -1.39383e-16 0)
(0.625974 1.3887e-15 0)
(0.169861 4.4464e-15 0)
(0.00556002 -5.96661e-16 0)
(1.40722e-05 3.46505e-15 0)
(1.99832e-09 -1.29779e-15 0)
(5.42651e-14 -8.02307e-16 0)
(3.05931e-17 -2.61292e-16 0)
(-5.17732e-16 8.89043e-17 0)
(-8.96274e-16 4.07659e-16 0)
(-9.52198e-16 5.43183e-16 0)
(-1.05492e-15 4.86805e-16 0)
(1.09504e-15 2.40692e-16 0)
(6.61173e-16 1.04083e-16 0)
(1.48874e-18 1.34441e-16 0)
(-3.23385e-16 2.75386e-16 0)
(3.43177e-18 1.06251e-16 0)
(4.15255e-16 2.77555e-16 0)
(6.82072e-16 4.0549e-16 0)
(3.01252e-16 4.94394e-16 0)
(-1.48816e-16 4.53195e-16 0)
(3.06113e-16 2.66713e-16 0)
(6.7332e-18 -3.90311e-17 0)
(-1.63891e-16 -2.60208e-16 0)
(-2.27893e-16 -2.1684e-17 0)
(-2.97129e-17 1.01915e-16 0)
(2.56658e-16 2.60208e-17 0)
(9.2568e-17 -1.56125e-16 0)
(3.65099e-15 1.2143e-16 0)
(5.42506e-11 -5.2692e-16 0)
(8.07569e-08 -1.58943e-15 0)
(1.50432e-05 -7.09942e-15 0)
(0.000504111 -5.78558e-15 0)
(0.00460666 1.25823e-15 0)
(0.0175489 2.92499e-15 0)
(0.0397276 3.78697e-15 0)
(0.0675496 -1.28742e-14 0)
(0.0981396 1.33614e-14 0)
(0.130128 -7.69397e-15 0)
(0.162934 1.25702e-14 0)
(0.196283 -8.00948e-16 0)
(0.230025 -2.52392e-15 0)
(0.264066 1.68095e-14 0)
(0.298344 -1.9354e-15 0)
(0.332816 4.2134e-15 0)
(0.367455 1.7355e-14 0)
(0.402241 2.72458e-15 0)
(0.437164 6.14239e-15 0)
(0.472217 2.7958e-15 0)
(0.507399 1.23276e-14 0)
(0.542712 3.52444e-15 0)
(0.578159 1.01004e-15 0)
(0.613742 8.50614e-15 0)
(0.649459 5.68857e-15 0)
(0.685303 9.58892e-15 0)
(0.721253 6.29218e-15 0)
(0.757269 1.69617e-14 0)
(0.793265 -6.75714e-15 0)
(0.829049 3.02603e-14 0)
(0.864053 9.05422e-15 0)
(0.896634 1.301e-15 0)
(0.922207 2.28069e-14 0)
(0.933731 2.22171e-14 0)
(0.932353 1.77331e-14 0)
(0.925662 1.24396e-14 0)
(0.92691 7.82475e-15 0)
(0.927596 6.30373e-15 0)
(0.927781 3.14605e-15 0)
(0.927934 7.91966e-15 0)
(0.92814 4.01454e-15 0)
(0.928417 5.86821e-15 0)
(0.928459 8.59785e-15 0)
(0.928292 6.62063e-15 0)
(0.928178 5.48818e-15 0)
(0.928196 3.70831e-15 0)
(0.928197 6.64585e-15 0)
(0.928143 4.04873e-15 0)
(0.928064 6.68823e-15 0)
(0.927993 3.28878e-15 0)
(0.927963 2.12459e-15 0)
(0.928035 5.38673e-15 0)
(0.928309 2.32313e-16 0)
(0.928702 2.09268e-15 0)
(0.928726 -5.28134e-17 0)
(0.928883 4.00655e-16 0)
(0.929665 8.06009e-15 0)
(0.927322 4.37018e-16 0)
(0.925895 4.48693e-15 0)
(0.925882 3.54521e-15 0)
(0.925973 4.9945e-15 0)
(0.926392 4.32261e-15 0)
(0.927301 1.23916e-15 0)
(0.928508 1.47908e-16 0)
(0.928959 2.44124e-15 0)
(0.928479 5.83286e-16 0)
(0.927799 -2.85966e-17 0)
(0.926937 -7.94159e-16 0)
(0.925961 -4.64409e-16 0)
(0.9239 -1.11529e-16 0)
(0.914422 -9.95801e-16 0)
(0.86114 -3.08903e-16 0)
(0.625974 -9.9062e-16 0)
(0.169861 5.08767e-15 0)
(0.00556002 -3.90581e-16 0)
(1.40722e-05 1.74879e-15 0)
(1.99833e-09 -9.38916e-16 0)
(5.48754e-14 -5.28005e-16 0)
(1.03858e-16 -2.19008e-16 0)
(-3.39738e-16 -1.53956e-16 0)
(-7.17983e-16 2.32018e-16 0)
(-1.00698e-15 3.39354e-16 0)
(-1.24032e-15 3.56701e-16 0)
(8.78201e-16 -2.1684e-18 0)
(5.44183e-16 2.55871e-16 0)
(7.73624e-17 3.03576e-16 0)
(2.20527e-18 5.94141e-16 0)
(2.13751e-16 3.88143e-16 0)
(4.33979e-16 5.50773e-16 0)
(4.19643e-16 3.85975e-16 0)
(1.71238e-16 1.36609e-16 0)
(1.05512e-16 1.97324e-16 0)
(-8.66404e-17 -1.27935e-16 0)
(-3.25648e-16 -3.77301e-16 0)
(-7.18904e-17 -1.25767e-16 0)
(-2.27781e-16 2.08166e-16 0)
(9.70544e-18 4.64037e-16 0)
(2.26943e-16 2.49366e-16 0)
(8.09896e-17 2.81892e-17 0)
(3.54547e-15 -3.46943e-17 0)
(5.42516e-11 1.35742e-15 0)
(8.07569e-08 -5.1391e-16 0)
(1.50432e-05 2.04916e-15 0)
(0.000504111 -8.87252e-16 0)
(0.00460666 -1.53252e-15 0)
(0.0175489 2.82375e-15 0)
(0.0397276 6.5344e-15 0)
(0.0675496 -1.13618e-14 0)
(0.0981396 1.6087e-14 0)
(0.130128 -4.33111e-15 0)
(0.162934 4.79641e-15 0)
(0.196283 1.27844e-15 0)
(0.230025 1.6619e-15 0)
(0.264066 1.15846e-14 0)
(0.298344 -4.25844e-15 0)
(0.332816 1.28184e-15 0)
(0.367455 1.48522e-14 0)
(0.402241 4.8216e-15 0)
(0.437164 3.50016e-15 0)
(0.472217 2.10877e-15 0)
(0.507399 1.55263e-14 0)
(0.542712 -7.24537e-16 0)
(0.578159 1.7372e-15 0)
(0.613742 7.9155e-15 0)
(0.649459 4.20194e-15 0)
(0.685303 4.40111e-15 0)
(0.721253 1.59745e-15 0)
(0.757269 1.72649e-14 0)
(0.793265 -6.47091e-15 0)
(0.829049 3.09755e-14 0)
(0.864053 -1.21312e-15 0)
(0.896634 4.22608e-15 0)
(0.922207 2.15151e-14 0)
(0.933731 1.87703e-14 0)
(0.932353 1.46519e-14 0)
(0.925662 1.07311e-14 0)
(0.92691 6.09725e-15 0)
(0.927596 5.28364e-15 0)
(0.927781 5.08681e-15 0)
(0.927934 7.63551e-15 0)
(0.92814 4.50243e-15 0)
(0.928417 8.35542e-15 0)
(0.928459 5.35313e-15 0)
(0.928292 5.38249e-15 0)
(0.928178 2.3524e-15 0)
(0.928196 5.97849e-15 0)
(0.928197 6.67256e-15 0)
(0.928143 2.86757e-15 0)
(0.928064 4.64939e-15 0)
(0.927993 6.11464e-15 0)
(0.927963 1.63061e-15 0)
(0.928035 2.9881e-15 0)
(0.928309 4.03679e-15 0)
(0.928702 3.68293e-15 0)
(0.928726 3.30425e-15 0)
(0.928883 3.4298e-15 0)
(0.929665 2.17649e-15 0)
(0.927322 3.01828e-15 0)
(0.925895 6.06332e-15 0)
(0.925882 5.14676e-15 0)
(0.925973 5.57207e-15 0)
(0.926392 3.63925e-15 0)
(0.927301 4.32885e-15 0)
(0.928508 3.56923e-15 0)
(0.928959 3.91764e-15 0)
(0.928479 3.56816e-15 0)
(0.927799 1.06012e-15 0)
(0.926937 1.24767e-15 0)
(0.925961 -4.06167e-16 0)
(0.9239 -8.88137e-16 0)
(0.914422 -5.78307e-16 0)
(0.86114 -6.05428e-16 0)
(0.625974 -4.04732e-15 0)
(0.169861 1.85117e-15 0)
(0.00556002 -4.21871e-16 0)
(1.40722e-05 3.5236e-16 0)
(1.99833e-09 1.27393e-15 0)
(5.4594e-14 3.97901e-16 0)
(-6.6393e-17 -2.74302e-16 0)
(-4.30129e-16 -3.14417e-16 0)
(-6.85065e-16 3.25259e-18 0)
(-9.37736e-16 8.99885e-17 0)
(-1.13732e-15 2.55871e-16 0)
(1.06685e-15 -2.14671e-16 0)
(6.51847e-16 -9.97462e-17 0)
(1.15262e-16 -4.98731e-17 0)
(-8.23856e-18 2.64544e-16 0)
(3.38488e-16 2.08166e-16 0)
(6.60429e-16 2.53702e-16 0)
(3.37061e-16 -6.93887e-17 0)
(1.58501e-16 -3.96817e-16 0)
(-1.59953e-16 -2.73218e-16 0)
(-4.16694e-16 -5.16078e-16 0)
(-7.58273e-17 -1.7564e-16 0)
(1.8156e-16 1.36609e-16 0)
(-4.46631e-17 2.81892e-17 0)
(-2.19465e-16 2.40692e-16 0)
(-6.60979e-17 -4.33679e-18 0)
(1.62921e-16 -9.32411e-17 0)
(3.97701e-15 -1.84314e-16 0)
(5.42538e-11 1.27285e-15 0)
(8.07569e-08 1.30104e-17 0)
(1.50432e-05 2.50019e-15 0)
(0.000504111 2.32551e-15 0)
(0.00460666 -2.83211e-15 0)
(0.0175489 -1.54063e-15 0)
(0.0397276 8.90953e-15 0)
(0.0675496 -1.19107e-14 0)
(0.0981396 1.59785e-14 0)
(0.130128 -1.09793e-15 0)
(0.162934 -1.44005e-15 0)
(0.196283 2.08709e-15 0)
(0.230025 5.98918e-15 0)
(0.264066 6.75214e-15 0)
(0.298344 -4.76406e-15 0)
(0.332816 1.61207e-15 0)