/*--------------------------------*- C++ -*----------------------------------*\
| =========                 |                                                 |
| \\      /  F ield         | OpenFOAM: The Open Source CFD Toolbox           |
|  \\    /   O peration     | Version:  4.1                                   |
|   \\  /    A nd           | Web:      www.OpenFOAM.org                      |
|    \\/     M anipulation  |                                                 |
\*---------------------------------------------------------------------------*/
FoamFile
{
    version     2.0;
    format      ascii;
    class       volVectorField;
    location    "0.47";
    object      U;
}
// * * * * * * * * * * * * * * * * * * * * * * * * * * * * * * * * * * * * * //

dimensions      [0 1 -1 0 0 0 0];

internalField   nonuniform List<vector> 
10000
(
(0 0 0)
(2.23324e-16 0 0)
(3.2004e-16 0 0)
(1.0431e-16 1.60461e-16 0)
(-1.21004e-16 0 0)
(-3.17651e-16 0 0)
(-3.03549e-16 0 0)
(-7.061e-17 0 0)
(-5.09267e-19 0 0)
(2.62808e-16 1.56125e-16 0)
(5.33032e-16 0 0)
(1.98791e-16 -1.56125e-16 0)
(-1.39721e-16 0 0)
(2.06141e-17 0 0)
(4.33088e-17 0 0)
(2.8073e-14 2.49366e-16 0)
(2.71653e-10 -3.25259e-17 0)
(2.58598e-07 1.42464e-15 0)
(3.30272e-05 9.90985e-16 0)
(0.000823091 9.0203e-15 0)
(0.00610678 7.2887e-15 0)
(0.0204528 4.45788e-15 0)
(0.0430934 -2.38644e-15 0)
(0.0704691 1.33104e-14 0)
(0.10014 -2.42085e-15 0)
(0.130996 4.817e-15 0)
(0.162564 -2.22579e-14 0)
(0.194616 -1.1293e-14 0)
(0.227021 -1.09973e-15 0)
(0.259698 1.55706e-14 0)
(0.292591 9.95447e-15 0)
(0.325662 3.19763e-14 0)
(0.358884 2.10244e-14 0)
(0.392241 4.28527e-14 0)
(0.42572 -2.5828e-14 0)
(0.459316 4.29455e-14 0)
(0.493026 1.83756e-14 0)
(0.526851 9.41933e-15 0)
(0.560793 -2.5818e-14 0)
(0.594854 9.0717e-15 0)
(0.629035 -1.21776e-14 0)
(0.663333 2.9164e-14 0)
(0.697738 -2.67174e-14 0)
(0.732227 4.89855e-14 0)
(0.76676 1.16931e-13 0)
(0.801251 8.11503e-14 0)
(0.835505 -2.54959e-14 0)
(0.868939 3.71658e-13 0)
(0.89982 -1.1973e-13 0)
(0.923561 -1.31782e-13 0)
(0.93371 6.02267e-14 0)
(0.93182 8.07212e-14 0)
(0.925735 7.67589e-14 0)
(0.926996 6.0656e-14 0)
(0.927599 4.02516e-14 0)
(0.927807 2.317e-14 0)
(0.927982 8.51624e-15 0)
(0.928148 2.81692e-15 0)
(0.928415 3.12708e-15 0)
(0.928424 1.26222e-14 0)
(0.92823 1.74438e-14 0)
(0.928154 1.71212e-14 0)
(0.928196 1.67409e-14 0)
(0.928205 1.87951e-14 0)
(0.928156 1.32001e-14 0)
(0.928079 7.50323e-15 0)
(0.928004 8.37362e-15 0)
(0.927948 3.67883e-15 0)
(0.927942 2.57922e-15 0)
(0.92803 7.90923e-15 0)
(0.928245 5.63626e-15 0)
(0.928669 1.85048e-15 0)
(0.9288 -1.33458e-14 0)
(0.928403 -2.18743e-14 0)
(0.928978 -3.41868e-14 0)
(0.928937 -3.12555e-14 0)
(0.926838 -1.70939e-14 0)
(0.925957 -6.01969e-15 0)
(0.925898 -3.13453e-15 0)
(0.925935 -2.04444e-15 0)
(0.92625 -2.86251e-15 0)
(0.927066 -3.37977e-15 0)
(0.928248 -5.09419e-15 0)
(0.928765 -9.76818e-15 0)
(0.928429 -1.21919e-14 0)
(0.9279 -1.44314e-14 0)
(0.927176 -1.23292e-14 0)
(0.926114 -1.1861e-14 0)
(0.923134 -1.00107e-14 0)
(0.9083 -7.59402e-15 0)
(0.827597 -4.354e-15 0)
(0.518474 -9.78042e-16 0)
(0.0904081 7.04813e-16 0)
(0.00160058 2.01375e-16 0)
(2.03824e-06 6.50518e-18 0)
(1.35076e-10 2.38524e-17 0)
(3.03495e-15 3.31765e-16 0)
(-4.084e-16 2.58039e-16 0)
(-4.12973e-16 1.5504e-16 0)
(-2.77555e-16 2.47197e-16 0)
(0 0 0)
(2.40108e-16 0 0)
(3.23049e-16 1.38777e-16 0)
(1.0427e-16 3.44775e-16 0)
(-1.21347e-16 1.30104e-16 0)
(-3.24658e-16 2.68881e-16 0)
(-3.39851e-16 5.63783e-17 0)
(-7.67814e-17 0 0)
(-3.10718e-18 0 0)
(2.54899e-16 0 0)
(5.6094e-16 0 0)
(2.07709e-16 0 0)
(-1.23035e-16 0 0)
(3.43596e-17 0 0)
(1.03168e-16 1.30104e-16 0)
(2.82005e-14 4.51026e-16 0)
(2.71653e-10 4.70542e-16 0)
(2.58598e-07 5.3039e-15 0)
(3.30272e-05 1.68055e-15 0)
(0.000823091 2.58197e-14 0)
(0.00610678 6.73072e-15 0)
(0.0204528 -2.99729e-15 0)
(0.0430934 5.90875e-15 0)
(0.0704691 2.1042e-14 0)
(0.10014 2.40313e-15 0)
(0.130996 -6.10372e-15 0)
(0.162564 -9.34537e-15 0)
(0.194616 1.89588e-14 0)
(0.227021 6.15003e-15 0)
(0.259698 -1.23189e-14 0)
(0.292591 2.05266e-14 0)
(0.325662 2.06862e-14 0)
(0.358884 8.24372e-15 0)
(0.392241 3.07128e-14 0)
(0.42572 -9.62426e-15 0)
(0.459316 3.92081e-14 0)
(0.493026 5.64437e-15 0)
(0.526851 5.13059e-15 0)
(0.560793 9.1811e-15 0)
(0.594854 2.05905e-14 0)
(0.629035 -6.45069e-15 0)
(0.663333 2.3909e-14 0)
(0.697738 -3.29512e-15 0)
(0.732227 6.08931e-14 0)
(0.76676 4.7199e-14 0)
(0.801251 5.06711e-14 0)
(0.835505 5.79474e-15 0)
(0.868939 1.79037e-13 0)
(0.89982 -2.34755e-14 0)
(0.923561 -2.30099e-14 0)
(0.93371 5.58574e-14 0)
(0.93182 6.40676e-14 0)
(0.925735 5.9341e-14 0)
(0.926996 5.16534e-14 0)
(0.927599 3.87155e-14 0)
(0.927807 2.59107e-14 0)
(0.927982 8.81595e-15 0)
(0.928148 5.7796e-15 0)
(0.928415 6.44676e-15 0)
(0.928424 8.48973e-15 0)
(0.92823 1.62232e-14 0)
(0.928154 2.11626e-14 0)
(0.928196 2.47915e-14 0)
(0.928205 2.28107e-14 0)
(0.928156 1.50322e-14 0)
(0.928079 1.20589e-14 0)
(0.928004 1.01617e-14 0)
(0.927948 4.31215e-15 0)
(0.927942 3.57518e-15 0)
(0.92803 7.46598e-15 0)
(0.928245 1.10073e-15 0)
(0.928669 7.82866e-16 0)
(0.9288 -2.13284e-15 0)
(0.928403 -1.07172e-14 0)
(0.928978 -1.99269e-14 0)
(0.928937 -1.60183e-14 0)
(0.926838 -7.93595e-15 0)
(0.925957 2.17579e-16 0)
(0.925898 8.18219e-16 0)
(0.925935 2.85029e-15 0)
(0.92625 4.39052e-15 0)
(0.927066 2.37819e-15 0)
(0.928248 7.76091e-16 0)
(0.928765 -4.15522e-15 0)
(0.928429 -5.03896e-15 0)
(0.9279 -9.44011e-15 0)
(0.927176 -4.60838e-15 0)
(0.926114 -3.93393e-15 0)
(0.923134 -5.56171e-15 0)
(0.9083 -3.98502e-15 0)
(0.827597 -6.16817e-15 0)
(0.518474 -5.05832e-15 0)
(0.0904081 2.48947e-15 0)
(0.00160058 -1.43994e-16 0)
(2.03824e-06 1.7564e-16 0)
(1.35076e-10 6.28835e-17 0)
(3.00406e-15 4.597e-16 0)
(-4.82129e-16 4.67289e-16 0)
(-5.2501e-16 3.56701e-16 0)
(-4.81384e-16 4.52111e-16 0)
(0 0 0)
(2.58733e-16 0 0)
(5.28701e-16 0 0)
(1.19117e-16 1.0842e-16 0)
(-3.57e-16 3.44775e-16 0)
(-3.24342e-16 5.98477e-16 0)
(-3.61184e-16 2.79723e-16 0)
(-6.03245e-17 0 0)
(-1.31941e-17 0 0)
(2.5688e-16 0 0)
(5.86914e-16 0 0)
(2.32765e-16 2.1684e-18 0)
(-1.09e-16 1.64798e-16 0)
(5.14192e-17 3.55617e-16 0)
(2.69142e-16 2.1684e-16 0)
(2.86348e-14 2.1684e-16 0)
(2.71654e-10 2.22044e-15 0)
(2.58598e-07 9.3111e-15 0)
(3.30272e-05 1.47672e-15 0)
(0.000823091 3.89759e-14 0)
(0.00610678 7.36717e-16 0)
(0.0204528 -3.27308e-15 0)
(0.0430934 1.0423e-14 0)
(0.0704691 2.37393e-14 0)
(0.10014 1.21349e-14 0)
(0.130996 -4.58779e-15 0)
(0.162564 -7.62163e-15 0)
(0.194616 2.52327e-14 0)
(0.227021 1.04632e-14 0)
(0.259698 -1.93068e-14 0)
(0.292591 2.36076e-14 0)
(0.325662 1.79576e-14 0)
(0.358884 7.68623e-15 0)
(0.392241 2.65291e-14 0)
(0.42572 -5.00115e-15 0)
(0.459316 3.71599e-14 0)
(0.493026 2.71245e-15 0)
(0.526851 4.01216e-15 0)
(0.560793 1.92435e-14 0)
(0.594854 2.07958e-14 0)
(0.629035 -3.95583e-15 0)
(0.663333 1.92956e-14 0)
(0.697738 1.04794e-14 0)
(0.732227 6.26629e-14 0)
(0.76676 2.45432e-14 0)
(0.801251 4.06936e-14 0)
(0.835505 1.34154e-14 0)
(0.868939 1.06829e-13 0)
(0.89982 1.20371e-14 0)
(0.923561 2.13706e-15 0)
(0.93371 4.5983e-14 0)
(0.93182 4.97265e-14 0)
(0.925735 4.69126e-14 0)
(0.926996 4.06937e-14 0)
(0.927599 2.83028e-14 0)
(0.927807 1.93533e-14 0)
(0.927982 6.11539e-15 0)
(0.928148 7.11916e-15 0)
(0.928415 8.44691e-15 0)
(0.928424 7.21971e-15 0)
(0.92823 1.64131e-14 0)
(0.928154 1.93543e-14 0)
(0.928196 2.34938e-14 0)
(0.928205 1.93049e-14 0)
(0.928156 1.38067e-14 0)
(0.928079 1.12236e-14 0)
(0.928004 8.78484e-15 0)
(0.927948 2.69013e-15 0)
(0.927942 2.88489e-15 0)
(0.92803 6.63605e-15 0)
(0.928245 -1.69398e-15 0)
(0.928669 -7.88717e-16 0)
(0.9288 -9.72394e-17 0)
(0.928403 -9.42512e-15 0)
(0.928978 -1.16247e-14 0)
(0.928937 -5.62618e-15 0)
(0.926838 -3.94665e-16 0)
(0.925957 4.23122e-15 0)
(0.925898 3.8499e-15 0)
(0.925935 5.54332e-15 0)
(0.92625 7.11599e-15 0)
(0.927066 2.55186e-15 0)
(0.928248 2.27561e-15 0)
(0.928765 -5.32039e-16 0)
(0.928429 -3.15363e-15 0)
(0.9279 -6.1706e-15 0)
(0.927176 -1.40053e-15 0)
(0.926114 9.77993e-16 0)
(0.923134 -2.84791e-15 0)
(0.9083 -2.11319e-16 0)
(0.827597 -1.96074e-15 0)
(0.518474 -1.36555e-15 0)
(0.0904081 4.82913e-15 0)
(0.00160058 -5.57572e-16 0)
(2.03824e-06 7.45927e-16 0)
(1.35077e-10 -6.28835e-17 0)
(2.90272e-15 3.96817e-16 0)
(-6.19946e-16 6.60277e-16 0)
(-6.35866e-16 5.57278e-16 0)
(-6.91718e-16 6.60277e-16 0)
(-2.1684e-18 -2.1684e-18 0)
(2.76391e-16 -2.1684e-18 0)
(5.87199e-16 -2.1684e-18 0)
(1.80518e-16 3.90311e-17 0)
(-3.04393e-16 2.86228e-16 0)
(-6.92695e-16 2.25513e-16 0)
(-3.77474e-16 -2.1684e-18 0)
(-3.07979e-17 -2.1684e-18 0)
(-2.80927e-17 0 0)
(2.0315e-16 0 0)
(4.3214e-16 -4.33679e-18 0)
(2.60124e-16 -3.03576e-17 0)
(1.83784e-16 3.3827e-16 0)
(1.75893e-16 7.04729e-16 0)
(2.24871e-16 3.85975e-16 0)
(2.82391e-14 8.23991e-17 0)
(2.71657e-10 1.98842e-15 0)
(2.58598e-07 8.33965e-15 0)
(3.30272e-05 2.66503e-15 0)
(0.000823091 4.3448e-14 0)
(0.00610678 -6.40595e-15 0)
(0.0204528 -3.38781e-15 0)
(0.0430934 1.20222e-14 0)
(0.0704691 2.04089e-14 0)
(0.10014 1.40539e-14 0)
(0.130996 -4.31129e-15 0)
(0.162564 -9.12476e-15 0)
(0.194616 2.7359e-14 0)
(0.227021 1.53408e-14 0)
(0.259698 -1.96109e-14 0)
(0.292591 2.28964e-14 0)
(0.325662 1.75144e-14 0)
(0.358884 6.97454e-15 0)
(0.392241 2.57773e-14 0)
(0.42572 -2.90933e-15 0)
(0.459316 3.37229e-14 0)
(0.493026 9.23137e-16 0)
(0.526851 4.19539e-15 0)
(0.560793 2.5174e-14 0)
(0.594854 1.96299e-14 0)
(0.629035 7.00997e-16 0)
(0.663333 1.57818e-14 0)
(0.697738 1.89502e-14 0)
(0.732227 5.87507e-14 0)
(0.76676 1.3771e-14 0)
(0.801251 3.7893e-14 0)
(0.835505 9.15875e-15 0)
(0.868939 7.35212e-14 0)
(0.89982 2.02144e-14 0)
(0.923561 1.21282e-14 0)
(0.93371 3.69887e-14 0)
(0.93182 3.99123e-14 0)
(0.925735 4.12182e-14 0)
(0.926996 3.43281e-14 0)
(0.927599 2.57323e-14 0)
(0.927807 1.77382e-14 0)
(0.927982 8.78954e-15 0)
(0.928148 1.07661e-14 0)
(0.928415 9.48089e-15 0)
(0.928424 7.7048e-15 0)
(0.92823 1.27445e-14 0)
(0.928154 1.45953e-14 0)
(0.928196 2.25772e-14 0)
(0.928205 1.7189e-14 0)
(0.928156 1.03918e-14 0)
(0.928079 9.72758e-15 0)
(0.928004 1.14443e-14 0)
(0.927948 5.21628e-15 0)
(0.927942 5.04395e-15 0)
(0.92803 5.32676e-15 0)
(0.928245 -1.80427e-15 0)
(0.928669 1.89846e-15 0)
(0.9288 5.29462e-15 0)
(0.928403 -5.11877e-15 0)
(0.928978 -5.342e-16 0)
(0.928937 -5.31086e-15 0)
(0.926838 3.98879e-15 0)
(0.925957 4.80577e-15 0)
(0.925898 4.68612e-15 0)
(0.925935 6.75724e-15 0)
(0.92625 9.07464e-15 0)
(0.927066 6.78823e-15 0)
(0.928248 7.10701e-15 0)
(0.928765 2.88843e-15 0)
(0.928429 -2.8326e-16 0)
(0.9279 -1.30689e-15 0)
(0.927176 9.23819e-16 0)
(0.926114 1.22466e-15 0)
(0.923134 -1.74897e-15 0)
(0.9083 2.09765e-16 0)
(0.827597 -8.00335e-16 0)
(0.518474 -4.58034e-16 0)
(0.0904081 7.76199e-16 0)
(0.00160058 2.66119e-15 0)
(2.03824e-06 2.00468e-15 0)
(1.35077e-10 8.60853e-16 0)
(3.33022e-15 3.3068e-16 0)
(-5.92364e-16 4.08743e-16 0)
(-7.80815e-16 3.15502e-16 0)
(-9.49758e-16 4.03322e-16 0)
(-2.1684e-18 2.1684e-18 0)
(2.95933e-16 2.1684e-18 0)
(6.36002e-16 2.1684e-18 0)
(1.89485e-16 1.6263e-16 0)
(-6.42243e-16 -1.60461e-16 0)
(-6.67082e-16 -5.44268e-16 0)
(-3.22046e-16 -2.40692e-16 0)
(1.21816e-17 2.1684e-18 0)
(-3.49159e-17 0 0)
(2.16625e-16 -2.1684e-18 0)
(4.56886e-16 1.30104e-16 0)
(2.77243e-16 3.12249e-16 0)
(3.65771e-16 1.49619e-16 0)
(1.82701e-16 3.31765e-16 0)
(2.17207e-17 1.58293e-16 0)
(2.86286e-14 2.40692e-16 0)
(2.71659e-10 2.11202e-15 0)
(2.58598e-07 5.61615e-15 0)
(3.30272e-05 8.89067e-17 0)
(0.000823091 4.04275e-14 0)
(0.00610678 -1.50504e-14 0)
(0.0204528 8.63776e-16 0)
(0.0430934 1.13035e-14 0)
(0.0704691 1.39436e-14 0)
(0.10014 1.33973e-14 0)
(0.130996 -4.04934e-15 0)
(0.162564 -9.67442e-15 0)
(0.194616 2.57812e-14 0)
(0.227021 1.71974e-14 0)
(0.259698 -2.05948e-14 0)
(0.292591 1.87017e-14 0)
(0.325662 1.16527e-14 0)
(0.358884 4.91361e-15 0)
(0.392241 2.25273e-14 0)
(0.42572 -3.97099e-15 0)
(0.459316 3.01853e-14 0)
(0.493026 -2.5047e-15 0)
(0.526851 2.55146e-15 0)
(0.560793 2.9124e-14 0)
(0.594854 1.77455e-14 0)
(0.629035 5.10482e-15 0)
(0.663333 1.07724e-14 0)
(0.697738 2.22728e-14 0)
(0.732227 4.79715e-14 0)
(0.76676 1.11542e-14 0)
(0.801251 3.09596e-14 0)
(0.835505 1.22813e-15 0)
(0.868939 5.90999e-14 0)
(0.89982 1.99324e-14 0)
(0.923561 1.58943e-14 0)
(0.93371 2.98366e-14 0)
(0.93182 2.8343e-14 0)
(0.925735 3.01167e-14 0)
(0.926996 2.405e-14 0)
(0.927599 2.10493e-14 0)
(0.927807 1.57815e-14 0)
(0.927982 9.77011e-15 0)
(0.928148 1.20121e-14 0)
(0.928415 7.76502e-15 0)
(0.928424 6.45261e-15 0)
(0.92823 1.03051e-14 0)
(0.928154 1.41811e-14 0)
(0.928196 2.05765e-14 0)
(0.928205 1.21922e-14 0)
(0.928156 9.06045e-15 0)
(0.928079 5.84699e-15 0)
(0.928004 9.91392e-15 0)
(0.927948 7.77794e-15 0)
(0.927942 3.47088e-15 0)
(0.92803 3.98919e-15 0)
(0.928245 -3.64674e-15 0)
(0.928669 3.82735e-15 0)
(0.9288 6.92285e-15 0)
(0.928403 -4.74859e-15 0)
(0.928978 9.9227e-15 0)
(0.928937 -7.31551e-15 0)
(0.926838 6.41588e-15 0)
(0.925957 6.91315e-16 0)
(0.925898 5.13354e-15 0)
(0.925935 7.36728e-15 0)
(0.92625 9.98467e-15 0)
(0.927066 5.47977e-15 0)
(0.928248 8.18475e-15 0)
(0.928765 8.22874e-15 0)
(0.928429 4.31065e-15 0)
(0.9279 4.86065e-15 0)
(0.927176 2.6704e-15 0)
(0.926114 1.61637e-15 0)
(0.923134 7.80052e-16 0)
(0.9083 4.35068e-16 0)
(0.827597 -1.22678e-15 0)
(0.518474 8.45546e-16 0)
(0.0904081 -5.85568e-15 0)
(0.00160058 7.82116e-15 0)
(2.03824e-06 3.97575e-15 0)
(1.35076e-10 8.61938e-16 0)
(2.86697e-15 2.66713e-16 0)
(-6.95754e-16 -1.02999e-16 0)
(-9.56564e-16 -3.46943e-17 0)
(-1.13841e-15 -1.63714e-16 0)
(1.51788e-17 0 0)
(2.96369e-16 -3.68627e-17 0)
(3.68195e-16 -2.88397e-16 0)
(-1.04811e-16 -5.37762e-16 0)
(-7.22661e-16 -6.3534e-16 0)
(-3.76808e-16 -2.86228e-16 0)
(-2.04405e-17 -2.1684e-17 0)
(8.78244e-17 0 0)
(-2.57363e-17 0 0)
(2.29889e-16 9.97462e-17 0)
(4.89056e-16 4.0549e-16 0)
(2.8414e-16 6.02814e-16 0)
(-8.51547e-18 3.07912e-16 0)
(1.18184e-17 -4.98731e-17 0)
(2.06821e-16 -5.20415e-17 0)
(2.87308e-14 -1.95156e-16 0)
(2.71662e-10 1.249e-15 0)
(2.58598e-07 2.99022e-15 0)
(3.30272e-05 -3.63867e-15 0)
(0.000823091 3.05132e-14 0)
(0.00610678 -1.32805e-14 0)
(0.0204528 2.37401e-15 0)
(0.0430934 9.64361e-15 0)
(0.0704691 8.1472e-15 0)
(0.10014 9.37163e-15 0)
(0.130996 -8.34365e-16 0)
(0.162564 -1.11925e-14 0)
(0.194616 2.13863e-14 0)
(0.227021 1.39589e-14 0)
(0.259698 -1.85767e-14 0)
(0.292591 1.7377e-14 0)
(0.325662 6.69633e-15 0)
(0.358884 3.62664e-15 0)
(0.392241 2.11445e-14 0)
(0.42572 -3.98674e-15 0)
(0.459316 2.4502e-14 0)
(0.493026 -3.35579e-15 0)
(0.526851 2.77446e-15 0)
(0.560793 3.00589e-14 0)
(0.594854 1.40763e-14 0)
(0.629035 8.25502e-15 0)
(0.663333 6.80757e-15 0)
(0.697738 2.10339e-14 0)
(0.732227 3.56178e-14 0)
(0.76676 1.15884e-14 0)
(0.801251 2.05578e-14 0)
(0.835505 2.33786e-15 0)
(0.868939 4.99371e-14 0)
(0.89982 1.608e-14 0)
(0.923561 1.71396e-14 0)
(0.93371 2.4496e-14 0)
(0.93182 2.28183e-14 0)
(0.925735 2.1136e-14 0)
(0.926996 1.91753e-14 0)
(0.927599 1.65021e-14 0)
(0.927807 1.2063e-14 0)
(0.927982 7.04474e-15 0)
(0.928148 9.18976e-15 0)
(0.928415 3.42505e-15 0)
(0.928424 4.64847e-15 0)
(0.92823 6.96665e-15 0)
(0.928154 1.45324e-14 0)
(0.928196 1.69974e-14 0)
(0.928205 8.48771e-15 0)
(0.928156 8.10528e-15 0)
(0.928079 3.71022e-15 0)
(0.928004 5.66459e-15 0)
(0.927948 6.11428e-15 0)
(0.927942 1.37006e-15 0)
(0.92803 3.96466e-15 0)
(0.928245 -1.11226e-15 0)
(0.928669 3.86791e-15 0)
(0.9288 6.69881e-15 0)
(0.928403 -3.6713e-15 0)
(0.928978 1.15372e-14 0)
(0.928937 -3.14805e-15 0)
(0.926838 3.51755e-15 0)
(0.925957 -1.01177e-15 0)
(0.925898 1.6061e-15 0)
(0.925935 4.90193e-15 0)
(0.92625 7.94801e-15 0)
(0.927066 4.11495e-15 0)
(0.928248 6.34575e-15 0)
(0.928765 7.90502e-15 0)
(0.928429 3.32817e-15 0)
(0.9279 6.45586e-15 0)
(0.927176 1.03815e-15 0)
(0.926114 4.06978e-15 0)
(0.923134 2.10368e-15 0)
(0.9083 1.87546e-15 0)
(0.827597 2.13109e-15 0)
(0.518474 1.33706e-15 0)
(0.0904081 -5.56008e-15 0)
(0.00160058 4.89905e-15 0)
(2.03824e-06 2.24862e-15 0)
(1.35076e-10 -6.17993e-17 0)
(2.56044e-15 -6.72203e-17 0)
(-9.1052e-16 -2.39608e-16 0)
(-8.13372e-16 -2.11419e-16 0)
(-9.15063e-16 -3.14417e-16 0)
(8.23991e-17 0 0)
(3.45375e-16 -2.47197e-16 0)
(3.5523e-17 -6.2233e-16 0)
(-1.85805e-16 -1.0018e-15 0)
(-3.9158e-16 -7.91465e-16 0)
(-4.99263e-17 -4.01153e-16 0)
(2.87702e-16 -3.46943e-17 0)
(2.08075e-16 3.90311e-17 0)
(6.80158e-18 0 0)
(2.42501e-16 0 0)
(4.34105e-16 1.38777e-16 0)
(4.78578e-17 3.12249e-16 0)
(-2.35624e-16 5.42099e-17 0)
(-6.99587e-17 -5.20415e-17 0)
(5.05836e-17 0 0)
(2.82132e-14 -1.14925e-16 0)
(2.71663e-10 3.10081e-16 0)
(2.58598e-07 -7.74118e-16 0)
(3.30272e-05 -2.75611e-15 0)
(0.000823091 1.17435e-14 0)
(0.00610678 -3.60512e-15 0)
(0.0204528 4.79545e-15 0)
(0.0430934 8.39528e-15 0)
(0.0704691 7.35861e-15 0)
(0.10014 2.30984e-15 0)
(0.130996 2.88753e-15 0)
(0.162564 -1.19341e-14 0)
(0.194616 1.98342e-14 0)
(0.227021 9.94633e-15 0)
(0.259698 -1.51132e-14 0)
(0.292591 1.81623e-14 0)
(0.325662 5.9048e-15 0)
(0.358884 1.55237e-15 0)
(0.392241 2.1586e-14 0)
(0.42572 -1.32944e-15 0)
(0.459316 1.82323e-14 0)
(0.493026 -7.94132e-16 0)
(0.526851 3.00264e-15 0)
(0.560793 2.60357e-14 0)
(0.594854 1.02515e-14 0)
(0.629035 8.10569e-15 0)
(0.663333 7.03553e-15 0)
(0.697738 1.9793e-14 0)
(0.732227 2.57309e-14 0)
(0.76676 1.54121e-14 0)
(0.801251 1.35885e-14 0)
(0.835505 7.25735e-15 0)
(0.868939 4.30192e-14 0)
(0.89982 8.10061e-15 0)
(0.923561 1.66544e-14 0)
(0.93371 2.56525e-14 0)
(0.93182 2.47892e-14 0)
(0.925735 1.81663e-14 0)
(0.926996 1.55154e-14 0)
(0.927599 1.40588e-14 0)
(0.927807 8.14486e-15 0)
(0.927982 6.52741e-15 0)
(0.928148 6.5011e-15 0)
(0.928415 3.74594e-15 0)
(0.928424 7.20029e-15 0)
(0.92823 5.59617e-15 0)
(0.928154 1.22027e-14 0)
(0.928196 1.20867e-14 0)
(0.928205 8.33991e-15 0)
(0.928156 6.70336e-15 0)
(0.928079 4.37322e-15 0)
(0.928004 3.43521e-15 0)
(0.927948 4.8964e-15 0)
(0.927942 2.2785e-15 0)
(0.92803 3.32348e-15 0)
(0.928245 2.32688e-15 0)
(0.928669 4.23419e-15 0)
(0.9288 6.93827e-15 0)
(0.928403 3.98251e-16 0)
(0.928978 6.63601e-15 0)
(0.928937 2.52813e-15 0)
(0.926838 2.68711e-15 0)
(0.925957 7.88531e-16 0)
(0.925898 1.03576e-15 0)
(0.925935 3.12833e-15 0)
(0.92625 5.6039e-15 0)
(0.927066 4.02273e-15 0)
(0.928248 4.90707e-15 0)
(0.928765 6.76844e-15 0)
(0.928429 2.9852e-15 0)
(0.9279 5.20663e-15 0)
(0.927176 1.42095e-15 0)
(0.926114 2.61888e-15 0)
(0.923134 1.97623e-15 0)
(0.9083 1.79932e-15 0)
(0.827597 1.80089e-15 0)
(0.518474 1.83783e-16 0)
(0.0904081 -1.23367e-15 0)
(0.00160058 3.6594e-16 0)
(2.03824e-06 3.04659e-16 0)
(1.35076e-10 -3.57785e-17 0)
(2.64392e-15 1.27935e-16 0)
(-8.12033e-16 -4.11995e-17 0)
(-7.10186e-16 -1.95156e-17 0)
(-7.13402e-16 -1.0842e-16 0)
(4.74879e-16 1.99492e-16 0)
(4.5848e-16 0 0)
(2.25382e-17 -2.66713e-16 0)
(-1.45885e-16 -6.37509e-16 0)
(-1.17073e-16 -4.14164e-16 0)
(1.05722e-16 -5.63783e-17 0)
(4.39831e-16 2.7105e-16 0)
(2.41986e-16 4.66205e-16 0)
(4.21224e-17 2.99239e-16 0)
(2.79937e-16 9.54094e-17 0)
(4.46997e-16 0 0)
(7.92386e-17 0 0)
(-2.91727e-16 0 0)
(-9.85674e-17 -7.37255e-17 0)
(7.47107e-17 0 0)
(2.83869e-14 1.66967e-16 0)
(2.71663e-10 1.17093e-16 0)
(2.58598e-07 -3.53015e-15 0)
(3.30272e-05 -2.72358e-15 0)
(0.000823091 -5.12098e-16 0)
(0.00610678 -5.88502e-16 0)
(0.0204528 7.37244e-15 0)
(0.0430934 5.94024e-15 0)
(0.0704691 7.28033e-15 0)
(0.10014 -5.51481e-15 0)
(0.130996 8.34729e-15 0)
(0.162564 -1.28789e-14 0)
(0.194616 1.76066e-14 0)
(0.227021 5.74917e-15 0)
(0.259698 -1.32404e-14 0)
(0.292591 1.85997e-14 0)
(0.325662 4.9636e-15 0)
(0.358884 1.61019e-15 0)
(0.392241 2.07961e-14 0)
(0.42572 1.65235e-15 0)
(0.459316 1.29762e-14 0)
(0.493026 2.47957e-16 0)
(0.526851 4.01389e-15 0)
(0.560793 2.04978e-14 0)
(0.594854 6.92212e-15 0)
(0.629035 8.92558e-15 0)
(0.663333 7.11316e-15 0)
(0.697738 1.79927e-14 0)
(0.732227 1.68967e-14 0)
(0.76676 1.8895e-14 0)
(0.801251 3.96227e-15 0)
(0.835505 1.26087e-14 0)
(0.868939 3.54666e-14 0)
(0.89982 7.17525e-16 0)
(0.923561 1.93337e-14 0)
(0.93371 2.62358e-14 0)
(0.93182 2.38417e-14 0)
(0.925735 1.65959e-14 0)
(0.926996 1.37394e-14 0)
(0.927599 1.05278e-14 0)
(0.927807 5.69231e-15 0)
(0.927982 6.21561e-15 0)
(0.928148 6.13606e-15 0)
(0.928415 4.78406e-15 0)
(0.928424 7.82035e-15 0)
(0.92823 5.65406e-15 0)
(0.928154 1.13723e-14 0)
(0.928196 7.32212e-15 0)
(0.928205 7.40036e-15 0)
(0.928156 4.16091e-15 0)
(0.928079 4.88337e-15 0)
(0.928004 3.31882e-15 0)
(0.927948 5.76244e-15 0)
(0.927942 4.41518e-15 0)
(0.92803 2.83935e-15 0)
(0.928245 4.92335e-16 0)
(0.928669 3.1299e-15 0)
(0.9288 3.4158e-15 0)
(0.928403 3.56975e-15 0)
(0.928978 2.90704e-15 0)
(0.928937 5.69812e-15 0)
(0.926838 2.61723e-15 0)
(0.925957 3.18499e-15 0)
(0.925898 2.72774e-15 0)
(0.925935 2.97467e-15 0)
(0.92625 2.66234e-15 0)
(0.927066 4.41466e-15 0)
(0.928248 3.678e-15 0)
(0.928765 4.93081e-15 0)
(0.928429 3.75128e-15 0)
(0.9279 3.68848e-15 0)
(0.927176 1.59601e-15 0)
(0.926114 1.81554e-15 0)
(0.923134 2.02947e-15 0)
(0.9083 1.52119e-15 0)
(0.827597 1.42257e-15 0)
(0.518474 -2.57154e-16 0)
(0.0904081 3.46575e-15 0)
(0.00160058 -1.00579e-15 0)
(2.03824e-06 -6.8738e-16 0)
(1.35077e-10 4.44521e-17 0)
(2.51168e-15 3.29596e-16 0)
(-1.00518e-15 2.01661e-16 0)
(-9.04487e-16 2.9707e-16 0)
(-8.47843e-16 2.39608e-16 0)
(8.86874e-16 4.87889e-16 0)
(6.09309e-16 1.84314e-16 0)
(2.6323e-18 1.14925e-16 0)
(-3.08266e-16 -2.4286e-16 0)
(-1.68601e-16 2.1684e-18 0)
(2.70265e-16 1.60461e-16 0)
(5.02385e-16 5.96309e-16 0)
(2.481e-16 8.50011e-16 0)
(4.22289e-17 6.41845e-16 0)
(2.88473e-16 3.46943e-16 0)
(3.51796e-16 1.6263e-16 0)
(2.83382e-17 -1.6263e-16 0)
(-2.89431e-16 -8.89043e-17 0)
(-1.20818e-16 -2.7105e-16 0)
(1.7e-16 4.33679e-17 0)
(2.86388e-14 -9.32411e-17 0)
(2.71662e-10 -1.71303e-16 0)
(2.58598e-07 -6.52037e-15 0)
(3.30272e-05 -3.19197e-15 0)
(0.000823091 -8.28036e-15 0)
(0.00610678 3.19753e-15 0)
(0.0204528 5.96701e-15 0)
(0.0430934 3.61902e-15 0)
(0.0704691 6.05312e-15 0)
(0.10014 -1.23357e-14 0)
(0.130996 1.08855e-14 0)
(0.162564 -1.12598e-14 0)
(0.194616 1.6116e-14 0)
(0.227021 2.43153e-15 0)
(0.259698 -8.72242e-15 0)
(0.292591 1.96267e-14 0)
(0.325662 3.75616e-15 0)
(0.358884 2.96981e-15 0)
(0.392241 2.18336e-14 0)
(0.42572 5.56033e-15 0)
(0.459316 1.04537e-14 0)
(0.493026 2.05235e-15 0)
(0.526851 7.76329e-15 0)
(0.560793 1.46548e-14 0)
(0.594854 3.08806e-15 0)
(0.629035 9.40116e-15 0)
(0.663333 7.13969e-15 0)
(0.697738 1.60958e-14 0)
(0.732227 9.47233e-15 0)
(0.76676 2.1234e-14 0)
(0.801251 -5.33953e-15 0)
(0.835505 1.72658e-14 0)
(0.868939 3.12554e-14 0)
(0.89982 -3.37979e-15 0)
(0.923561 2.41373e-14 0)
(0.93371 2.4606e-14 0)
(0.93182 2.1745e-14 0)
(0.925735 1.33526e-14 0)
(0.926996 1.07671e-14 0)
(0.927599 7.35868e-15 0)
(0.927807 2.0658e-15 0)
(0.927982 7.30436e-15 0)
(0.928148 5.29203e-15 0)
(0.928415 6.62917e-15 0)
(0.928424 1.03636e-14 0)
(0.92823 7.3325e-15 0)
(0.928154 1.21054e-14 0)
(0.928196 3.32988e-15 0)
(0.928205 6.69252e-15 0)
(0.928156 3.81401e-15 0)
(0.928079 6.49153e-15 0)
(0.928004 3.44608e-15 0)
(0.927948 5.21919e-15 0)
(0.927942 7.10299e-15 0)
(0.92803 1.46839e-15 0)
(0.928245 4.47282e-16 0)
(0.928669 3.71735e-15 0)
(0.9288 1.96449e-15 0)
(0.928403 6.63596e-15 0)
(0.928978 1.1817e-15 0)
(0.928937 7.18081e-15 0)
(0.926838 1.38801e-15 0)
(0.925957 5.85509e-15 0)
(0.925898 4.79514e-15 0)
(0.925935 2.37593e-15 0)
(0.92625 -5.14811e-16 0)
(0.927066 3.48582e-15 0)
(0.928248 1.42692e-15 0)
(0.928765 2.5831e-15 0)
(0.928429 1.52399e-15 0)
(0.9279 1.84883e-15 0)
(0.927176 2.14418e-15 0)
(0.926114 3.52384e-16 0)
(0.923134 1.61794e-15 0)
(0.9083 1.76928e-15 0)
(0.827597 3.15322e-15 0)
(0.518474 -4.13869e-16 0)
(0.0904081 9.26311e-15 0)
(0.00160058 -2.77487e-15 0)
(2.03824e-06 -2.86011e-15 0)
(1.35077e-10 -7.58939e-18 0)
(2.63119e-15 8.56517e-17 0)
(-9.43566e-16 4.08743e-16 0)
(-9.92068e-16 5.45352e-16 0)
(-1.09504e-15 4.90058e-16 0)
(1.1254e-15 2.40692e-16 0)
(6.88094e-16 1.04083e-16 0)
(1.90068e-17 1.34441e-16 0)
(-3.24913e-16 2.77555e-16 0)
(3.67697e-18 1.06251e-16 0)
(4.22579e-16 2.79723e-16 0)
(6.87445e-16 4.14164e-16 0)
(3.06936e-16 4.98731e-16 0)
(-1.42946e-16 4.55363e-16 0)
(3.14835e-16 2.73218e-16 0)
(1.14725e-18 -5.63783e-17 0)
(-2.26357e-16 -2.8406e-16 0)
(-2.29509e-16 -1.51788e-17 0)
(-1.47264e-16 9.97462e-17 0)
(3.43869e-16 3.46943e-17 0)
(2.81816e-14 -2.75386e-16 0)
(2.71662e-10 -8.43506e-16 0)
(2.58598e-07 -2.52185e-15 0)
(3.30272e-05 -3.26136e-15 0)
(0.000823091 -8.64491e-15 0)
(0.00610678 -1.37317e-16 0)
(0.0204528 1.54774e-15 0)
(0.0430934 3.41097e-15 0)
(0.0704691 6.90042e-15 0)
(0.10014 -1.44814e-14 0)
(0.130996 1.14046e-14 0)
(0.162564 -7.61166e-15 0)
(0.194616 1.08649e-14 0)
(0.227021 1.08127e-15 0)
(0.259698 -4.02124e-15 0)
(0.292591 1.71367e-14 0)
(0.325662 1.38445e-15 0)
(0.358884 2.65845e-15 0)
(0.392241 1.8993e-14 0)
(0.42572 6.70705e-15 0)
(0.459316 8.44941e-15 0)
(0.493026 1.38554e-15 0)
(0.526851 1.14557e-14 0)
(0.560793 7.53792e-15 0)
(0.594854 1.29767e-15 0)
(0.629035 8.20937e-15 0)
(0.663333 6.86259e-15 0)
(0.697738 1.16431e-14 0)
(0.732227 3.76731e-15 0)
(0.76676 2.16399e-14 0)
(0.801251 -7.81118e-15 0)
(0.835505 2.17129e-14 0)
(0.868939 2.53645e-14 0)
(0.89982 -3.11258e-15 0)
(0.923561 2.019e-14 0)
(0.93371 2.43264e-14 0)
(0.93182 2.17485e-14 0)
(0.925735 1.33158e-14 0)
(0.926996 9.1968e-15 0)
(0.927599 7.52434e-15 0)
(0.927807 3.38352e-15 0)
(0.927982 9.91042e-15 0)
(0.928148 4.44609e-15 0)
(0.928415 6.73613e-15 0)
(0.928424 9.62543e-15 0)
(0.92823 7.09486e-15 0)
(0.928154 7.70285e-15 0)
(0.928196 3.83555e-15 0)
(0.928205 6.27647e-15 0)
(0.928156 4.25598e-15 0)
(0.928079 6.3667e-15 0)
(0.928004 3.7393e-15 0)
(0.927948 2.27276e-15 0)
(0.927942 6.99408e-15 0)
(0.92803 1.10658e-15 0)
(0.928245 1.39483e-15 0)
(0.928669 2.41374e-15 0)
(0.9288 1.2337e-16 0)
(0.928403 6.54283e-15 0)
(0.928978 -1.133e-15 0)
(0.928937 6.8757e-15 0)
(0.926838 2.68403e-15 0)
(0.925957 5.57321e-15 0)
(0.925898 4.38218e-15 0)
(0.925935 2.45045e-15 0)
(0.92625 4.72723e-16 0)
(0.927066 3.722e-15 0)
(0.928248 2.36713e-15 0)
(0.928765 5.35103e-16 0)
(0.928429 3.23069e-16 0)
(0.9279 1.34873e-15 0)
(0.927176 1.78741e-15 0)
(0.926114 1.63424e-17 0)
(0.923134 1.20898e-15 0)
(0.9083 1.70713e-15 0)
(0.827597 2.62446e-15 0)
(0.518474 -7.49381e-16 0)
(0.0904081 4.05795e-15 0)
(0.00160058 -1.73876e-15 0)
(2.03824e-06 -1.59594e-15 0)
(1.35077e-10 6.72203e-17 0)
(2.88225e-15 -1.72388e-16 0)
(-7.82986e-16 2.75386e-16 0)
(-1.04778e-15 3.39354e-16 0)
(-1.27285e-15 3.63206e-16 0)
(9.08558e-16 6.50519e-18 0)
(5.73692e-16 2.55871e-16 0)
(9.40033e-17 3.05744e-16 0)
(1.67424e-18 5.96309e-16 0)
(2.16378e-16 3.9248e-16 0)
(4.39135e-16 5.48604e-16 0)
(4.21814e-16 3.88143e-16 0)
(1.74328e-16 1.40946e-16 0)
(1.12184e-16 2.01661e-16 0)
(-7.88663e-17 -1.23599e-16 0)
(-3.24924e-16 -3.96817e-16 0)
(-6.65763e-17 -1.47451e-16 0)
(-2.41432e-16 2.23345e-16 0)
(-8.7628e-17 4.77047e-16 0)
(1.89571e-16 2.14671e-16 0)
(2.81041e-14 -6.72203e-17 0)
(2.71661e-10 -1.0842e-17 0)
(2.58598e-07 3.15935e-15 0)
(3.30272e-05 -4.34776e-15 0)
(0.000823091 -4.96909e-16 0)
(0.00610678 -2.46299e-16 0)
(0.0204528 1.41205e-16 0)
(0.0430934 2.88465e-15 0)
(0.0704691 9.69213e-15 0)
(0.10014 -1.18244e-14 0)
(0.130996 1.48561e-14 0)
(0.162564 -2.89659e-15 0)
(0.194616 4.88068e-15 0)
(0.227021 2.14143e-15 0)
(0.259698 1.51187e-15 0)
(0.292591 1.32452e-14 0)
(0.325662 -1.02179e-15 0)
(0.358884 -2.53539e-16 0)
(0.392241 1.48415e-14 0)
(0.42572 7.34814e-15 0)
(0.459316 4.74934e-15 0)
(0.493026 -1.02869e-15 0)
(0.526851 1.4842e-14 0)
(0.560793 4.06245e-15 0)
(0.594854 1.73053e-15 0)
(0.629035 7.27534e-15 0)
(0.663333 7.16229e-15 0)
(0.697738 7.41071e-15 0)
(0.732227 -2.06263e-15 0)
(0.76676 2.14011e-14 0)
(0.801251 -1.01425e-14 0)
(0.835505 2.62574e-14 0)
(0.868939 1.58815e-14 0)
(0.89982 -2.07093e-15 0)
(0.923561 2.12997e-14 0)
(0.93371 2.09642e-14 0)
(0.93182 1.7642e-14 0)
(0.925735 1.09888e-14 0)
(0.926996 8.03222e-15 0)
(0.927599 6.5272e-15 0)
(0.927807 5.53519e-15 0)
(0.927982 8.40329e-15 0)
(0.928148 5.76783e-15 0)
(0.928415 7.60266e-15 0)
(0.928424 6.41409e-15 0)
(0.92823 6.22383e-15 0)
(0.928154 1.12607e-15 0)
(0.928196 9.08574e-15 0)
(0.928205 8.23057e-15 0)
(0.928156 3.81655e-15 0)
(0.928079 5.04451e-15 0)
(0.928004 7.07315e-15 0)
(0.927948 1.89542e-15 0)
(0.927942 3.65908e-15 0)
(0.92803 4.28458e-15 0)
(0.928245 3.4759e-15 0)
(0.928669 4.14018e-15 0)
(0.9288 1.85654e-15 0)
(0.928403 2.13726e-15 0)
(0.928978 2.45881e-15 0)
(0.928937 6.7109e-15 0)
(0.926838 5.95698e-15 0)
(0.925957 5.15297e-15 0)
(0.925898 3.39579e-15 0)
(0.925935 4.60693e-15 0)
(0.92625 5.34931e-15 0)
(0.927066 3.85981e-15 0)
(0.928248 4.44693e-15 0)
(0.928765 1.91371e-15 0)
(0.928429 1.93076e-15 0)
(0.9279 1.28444e-15 0)
(0.927176 1.11675e-15 0)
(0.926114 1.28595e-15 0)
(0.923134 4.4377e-16 0)
(0.9083 -1.3974e-15 0)
(0.827597 -6.10069e-16 0)
(0.518474 -6.2116e-16 0)
(0.0904081 -7.75194e-16 0)
(0.00160058 1.88275e-15 0)
(2.03824e-06 1.95481e-15 0)
(1.35076e-10 -6.03898e-16 0)
(2.80557e-15 -3.62122e-16 0)
(-7.53687e-16 4.22837e-17 0)
(-9.86083e-16 8.99885e-17 0)
(-1.17202e-15 2.61292e-16 0)
(1.0907e-15 -2.1684e-16 0)
(6.79092e-16 -9.97462e-17 0)
(1.36283e-16 -5.42099e-17 0)
(8.21716e-18 2.64544e-16 0)
(3.51003e-16 2.08166e-16 0)
(6.64619e-16 2.51534e-16 0)
(3.44065e-16 -7.15571e-17 0)
(1.699e-16 -3.96817e-16 0)
(-1.52867e-16 -2.73218e-16 0)
(-4.14359e-16 -5.05236e-16 0)
(-7.6646e-17 -1.66967e-16 0)
(2.10391e-16 1.30104e-16 0)
(-7.02821e-17 2.38524e-17 0)
(-3.30393e-16 2.47197e-16 0)
(-1.30856e-16 -4.33679e-18 0)
(2.78705e-14 -2.86228e-16 0)
(2.71663e-10 7.06897e-16 0)
(2.58598e-07 4.15899e-15 0)
(3.30272e-05 -3.13342e-15 0)
(0.000823091 -9.98157e-17 0)
(0.00610678 6.10298e-16 0)
(0.0204528 6.72929e-17 0)
(0.0430934 -1.13474e-15 0)
(0.0704691 9.07853e-15 0)
(0.10014 -1.12162e-14 0)
(0.130996 1.45699e-14 0)
(0.162564 7.35365e-16 0)
(0.194616 1.43549e-16 0)
(0.227021 2.20473e-15 0)
(0.259698 6.4614e-15 0)
(0.292591 8.83942e-15 0)
(0.325662 -1.90686e-15 0)
(0.358884 1.14078e-28 0)
(0.392241 9.12674e-15 0)
(0.42572 9.02412e-15 0)
(0.459316 2.98702e-15 0)
(0.493026 -8.37692e-17 0)
(0.526851 1.70063e-14 0)
(0.560793 4.92953e-15 0)
(0.594854 2.37062e-15 0)
(0.629035 6.67231e-15 0)
(0.663333 9.83108e-15 0)
(0.697738 5.55651e-15 0)