/*--------------------------------*- C++ -*----------------------------------*\
| =========                 |                                                 |
| \\      /  F ield         | OpenFOAM: The Open Source CFD Toolbox           |
|  \\    /   O peration     | Version:  4.1                                   |
|   \\  /    A nd           | Web:      www.OpenFOAM.org                      |
|    \\/     M anipulation  |                                                 |
\*---------------------------------------------------------------------------*/
FoamFile
{
    version     2.0;
    format      ascii;
    class       volVectorField;
    location    "0.09";
    object      U;
}
// * * * * * * * * * * * * * * * * * * * * * * * * * * * * * * * * * * * * * //

dimensions      [0 1 -1 0 0 0 0];

internalField   nonuniform List<vector> 
10000
(
(0 0 0)
(1.75431e-17 0 0)
(1.18236e-16 0 0)
(1.96174e-17 9.32411e-17 0)
(-6.66541e-17 0 0)
(-1.63774e-17 0 0)
(-3.171e-17 0 0)
(-4.70742e-19 0 0)
(5.14677e-32 0 0)
(8.06191e-17 1.0842e-16 0)
(2.78134e-16 0 0)
(-1.72287e-17 -1.47451e-16 0)
(-3.11885e-16 0 0)
(-2.99352e-17 0 0)
(1.31527e-16 0 0)
(5.68111e-18 1.06251e-16 0)
(-1.2672e-16 0 0)
(-9.93499e-18 0 0)
(-2.41668e-20 0 0)
(-2.04136e-18 0 0)
(1.96233e-21 0 0)
(-2.94791e-18 9.32411e-17 0)
(2.1947e-18 0 0)
(2.4926e-17 0 0)
(-4.85723e-19 0 0)
(-2.75644e-17 0 0)
(-2.25691e-16 -1.17093e-16 0)
(4.65276e-20 7.37255e-17 0)
(2.13951e-16 0 0)
(3.10641e-18 1.23599e-16 0)
(-1.36488e-16 0 0)
(-9.45205e-23 -9.75778e-17 0)
(7.48145e-17 -2.1684e-18 0)
(-1.09997e-16 0 0)
(3.15816e-18 2.38524e-17 0)
(2.43272e-17 2.49366e-16 0)
(-7.87833e-17 6.07151e-17 0)
(7.31478e-17 0 0)
(2.68437e-15 6.50519e-18 0)
(5.99419e-11 7.26413e-16 0)
(1.67332e-07 -2.60208e-17 0)
(4.82818e-05 6.54882e-16 0)
(0.0020964 5.0266e-15 0)
(0.0214407 -2.03944e-15 0)
(0.0837556 8.59758e-16 0)
(0.188344 -6.63229e-15 0)
(0.316149 -4.34563e-15 0)
(0.457397 3.77684e-15 0)
(0.603404 -6.1618e-16 0)
(0.75733 -3.46587e-15 0)
(0.903028 3.36279e-15 0)
(0.954824 5.28145e-15 0)
(0.931853 5.33638e-15 0)
(0.934014 5.3628e-15 0)
(0.94227 1.92926e-15 0)
(0.960065 8.43072e-16 0)
(0.913663 1.26406e-15 0)
(0.71276 -5.99321e-16 0)
(0.254523 -9.1735e-16 0)
(0.0133961 -8.57553e-17 0)
(5.92648e-05 1.03427e-15 0)
(1.62927e-08 6.41845e-16 0)
(4.88891e-13 0 0)
(1.8478e-16 -6.50519e-17 0)
(-5.22565e-17 -2.78639e-16 0)
(-1.49351e-16 -8.99885e-17 0)
(-1.88403e-17 0 0)
(9.57484e-21 0 0)
(9.70145e-17 0 0)
(2.57638e-16 0 0)
(5.18212e-17 0 0)
(-1.53896e-16 0 0)
(-9.49669e-20 1.12757e-16 0)
(-4.38579e-17 3.48028e-16 0)
(-1.56471e-16 1.48535e-16 0)
(3.43387e-17 0 0)
(2.34213e-16 0 0)
(3.36639e-17 0 0)
(-1.54963e-16 9.54094e-17 0)
(3.12844e-17 0 0)
(2.31964e-16 0 0)
(2.76645e-17 0 0)
(-1.75605e-16 0 0)
(2.67122e-17 0 0)
(2.23881e-16 6.93887e-17 0)
(7.54116e-17 0 0)
(-1.1728e-16 0 0)
(-9.39086e-18 0 0)
(-3.02636e-18 0 0)
(-3.92006e-17 0 0)
(-1.01623e-16 -6.50519e-18 0)
(-2.4657e-16 0 0)
(-7.12305e-17 0 0)
(5.60508e-17 0 0)
(2.25158e-16 0 0)
(2.23844e-17 0 0)
(-1.72682e-16 8.02307e-17 0)
(-7.14788e-17 0 0)
(-5.21263e-18 0 0)
(0 0 0)
(0 0 0)
(8.00397e-17 0 0)
(2.34991e-16 9.54094e-17 0)
(3.99603e-17 2.77555e-16 0)
(-1.54676e-16 9.54094e-17 0)
(-8.51907e-17 1.56125e-16 0)
(-1.3512e-16 0 0)
(-8.2334e-18 0 0)
(1.24209e-31 0 0)
(5.99591e-17 0 0)
(2.6981e-16 0 0)
(1.78556e-19 0 0)
(-2.73703e-16 0 0)
(-2.78739e-18 0 0)
(1.91069e-16 1.10588e-16 0)
(4.53009e-18 2.90565e-16 0)
(-1.79948e-16 1.10588e-16 0)
(-3.99661e-17 0 0)
(-7.89771e-19 0 0)
(-2.80902e-17 0 0)
(9.73152e-20 0 0)
(1.936e-18 2.1684e-18 0)
(5.50963e-18 0 0)
(1.00869e-16 1.30104e-17 0)
(-6.42236e-18 1.38777e-16 0)
(-1.3111e-16 0 0)
(-1.11054e-16 6.72203e-17 0)
(-9.03577e-19 2.58039e-16 0)
(8.76229e-17 5.85467e-17 0)
(8.48221e-18 0 0)
(-1.7108e-16 0 0)
(-1.67925e-21 2.81892e-17 0)
(1.7108e-16 -7.37255e-17 0)
(1.41492e-18 0 0)
(1.61257e-17 1.51788e-16 0)
(2.29534e-17 4.29343e-16 0)
(-1.59239e-16 2.47197e-16 0)
(4.16363e-17 4.98731e-17 0)
(2.60002e-15 -8.23991e-17 0)
(5.99435e-11 1.25116e-15 0)
(1.67332e-07 -4.96563e-16 0)
(4.82818e-05 1.91911e-15 0)
(0.0020964 7.37481e-15 0)
(0.0214407 -1.29124e-14 0)
(0.0837556 4.2184e-15 0)
(0.188344 5.4865e-16 0)
(0.316149 -1.48572e-15 0)
(0.457397 2.42936e-17 0)
(0.603404 1.02355e-15 0)
(0.75733 -6.4343e-16 0)
(0.903028 3.98438e-15 0)
(0.954824 4.71096e-15 0)
(0.931853 3.89939e-15 0)
(0.934014 5.01765e-15 0)
(0.94227 2.42777e-15 0)
(0.960065 1.20218e-15 0)
(0.913663 1.50575e-15 0)
(0.71276 -3.17302e-15 0)
(0.254523 -6.08908e-16 0)
(0.0133961 -2.9264e-15 0)
(5.92648e-05 1.69126e-15 0)
(1.62927e-08 7.26413e-16 0)
(4.88903e-13 6.50519e-18 0)
(1.10952e-16 9.97462e-17 0)
(-1.39077e-17 2.81892e-17 0)
(-1.58156e-16 1.0083e-16 0)
(-3.69816e-17 0 0)
(6.8473e-19 0 0)
(1.05763e-16 0 0)
(2.61624e-16 8.34833e-17 0)
(7.95754e-17 0 0)
(-9.3461e-17 0 0)
(1.20578e-17 6.50519e-17 0)
(-8.91592e-17 1.65882e-16 0)
(-1.92222e-16 6.50519e-17 0)
(1.21894e-17 4.66205e-17 0)
(2.14873e-16 0 0)
(1.57422e-17 2.81892e-17 0)
(-1.52876e-16 1.98408e-16 0)
(1.74959e-17 2.81892e-17 0)
(2.18325e-16 0 0)
(2.56081e-17 0 0)
(-1.73963e-16 0 0)
(3.32064e-17 4.87889e-17 0)
(2.22846e-16 1.71303e-16 0)
(5.88666e-17 5.42099e-18 0)
(-1.38407e-16 0 0)
(-2.86937e-17 0 0)
(-1.88473e-17 0 0)
(-9.49145e-17 -6.50519e-18 0)
(-6.52379e-17 -1.0842e-16 0)
(-1.73785e-16 1.84314e-17 0)
(-6.48634e-17 1.2902e-16 0)
(5.94328e-17 0 0)
(2.35146e-16 0 0)
(3.79122e-17 1.40946e-17 0)
(-1.29255e-16 1.82145e-16 0)
(-1.28528e-16 1.01915e-16 0)
(-4.29205e-17 1.6263e-17 0)
(0 1.01915e-16 0)
(0 0 0)
(1.71946e-16 0 0)
(4.64229e-16 0 0)
(6.93584e-17 6.72203e-17 0)
(-3.72493e-16 2.58039e-16 0)
(-1.92613e-16 4.40184e-16 0)
(-2.51488e-16 1.7564e-16 0)
(-4.35615e-17 0 0)
(-9.90741e-28 0 0)
(1.01315e-16 0 0)
(3.5775e-16 0 0)
(1.69094e-17 4.33679e-18 0)
(-2.81587e-16 0 0)
(6.37058e-18 1.58293e-16 0)
(2.98697e-16 1.30104e-17 0)
(8.05725e-18 6.28835e-17 0)
(-3.23483e-16 0 0)
(-8.25487e-17 0 0)
(-7.13222e-18 1.01915e-16 0)
(-1.2829e-16 0 0)
(1.53353e-18 0 0)
(6.06361e-17 0 0)
(3.12964e-17 6.72203e-17 0)
(1.63725e-16 2.19008e-16 0)
(-2.90912e-17 4.14164e-16 0)
(-2.72113e-16 1.71303e-16 0)
(-2.55446e-16 0 0)
(-3.41368e-18 4.11995e-17 0)
(2.1225e-16 0 0)
(4.52737e-17 0 0)
(-5.29374e-25 6.50519e-17 0)
(-1.3271e-20 2.94902e-16 0)
(1.7435e-23 1.12757e-16 0)
(4.29325e-18 1.10588e-16 0)
(4.61982e-17 3.10081e-16 0)
(8.67849e-17 3.25259e-16 0)
(-9.64159e-17 5.07405e-16 0)
(-9.30606e-17 2.4286e-16 0)
(2.3333e-15 1.49619e-16 0)
(5.9945e-11 1.59377e-15 0)
(1.67332e-07 -3.07479e-15 0)
(4.82818e-05 1.06256e-15 0)
(0.0020964 5.66307e-15 0)
(0.0214407 -1.14195e-14 0)
(0.0837556 5.28902e-15 0)
(0.188344 2.16908e-16 0)
(0.316149 1.76313e-15 0)
(0.457397 -4.1461e-16 0)
(0.603404 2.72014e-15 0)
(0.75733 1.32687e-15 0)
(0.903028 1.08551e-15 0)
(0.954824 2.10897e-15 0)
(0.931853 2.0312e-15 0)
(0.934014 5.11134e-15 0)
(0.94227 1.8941e-15 0)
(0.960065 -6.94737e-16 0)
(0.913663 2.10591e-16 0)
(0.71276 -3.20683e-15 0)
(0.254523 5.10525e-16 0)
(0.0133961 -5.30611e-15 0)
(5.92648e-05 2.126e-15 0)
(1.62927e-08 9.84452e-16 0)
(4.88961e-13 1.25767e-16 0)
(2.48964e-16 2.67797e-16 0)
(-9.10034e-17 2.4286e-16 0)
(-2.57542e-16 2.87313e-16 0)
(-9.50269e-17 1.23599e-16 0)
(8.92251e-18 3.57785e-17 0)
(9.61954e-17 1.09504e-16 0)
(2.08435e-16 2.69965e-16 0)
(4.53629e-17 1.05167e-16 0)
(-1.31742e-16 8.45675e-17 0)
(-9.0275e-18 1.0083e-16 0)
(8.97277e-18 -4.33679e-18 0)
(-8.53358e-17 1.02999e-16 0)
(2.75548e-17 2.12503e-16 0)
(1.32914e-16 1.10588e-16 0)
(4.96202e-18 2.92734e-17 0)
(-1.49598e-16 9.64936e-17 0)
(-6.86388e-17 1.01915e-16 0)
(8.72658e-17 7.69781e-17 0)
(7.89281e-17 1.51788e-17 0)
(-2.45399e-17 1.18178e-16 0)
(7.90129e-17 2.15755e-16 0)
(1.62026e-16 7.15571e-17 0)
(3.8654e-18 -1.0083e-16 0)
(-1.50514e-16 -5.63783e-17 0)
(-4.86829e-17 5.20415e-17 0)
(-4.23571e-17 -4.98731e-17 0)
(-1.44083e-16 5.42099e-17 0)
(-4.11331e-17 -2.1684e-18 0)
(-3.83127e-17 1.5504e-16 0)
(-9.9029e-17 3.0466e-16 0)
(-3.84326e-17 1.51788e-16 0)
(1.63983e-16 5.42099e-17 0)
(1.37932e-16 -8.89043e-17 0)
(-6.12102e-17 6.61361e-17 0)
(-2.11444e-16 2.67797e-16 0)
(-1.0989e-16 1.66967e-16 0)
(-1.06251e-16 2.68881e-16 0)
(-2.1684e-18 -2.1684e-18 0)
(1.4106e-16 -2.1684e-18 0)
(3.96457e-16 -2.1684e-18 0)
(1.23902e-16 3.90311e-17 0)
(-1.65826e-16 2.9707e-16 0)
(-2.87688e-16 6.50519e-17 0)
(-3.23911e-16 -2.1684e-18 0)
(-7.97674e-17 -2.1684e-18 0)
(-6.25833e-24 0 0)
(1.86908e-17 0 0)
(1.97274e-16 -4.33679e-18 0)
(4.27842e-17 -1.73472e-16 0)
(2.1008e-17 1.06251e-16 0)
(3.65166e-17 4.38016e-16 0)
(1.6319e-16 1.95156e-16 0)
(-1.72277e-18 0 0)
(-1.41196e-16 -2.1684e-18 0)
(2.36626e-17 1.12757e-16 0)
(-2.46058e-17 3.5128e-16 0)
(-2.0737e-16 1.73472e-16 0)
(9.78695e-18 0 0)
(1.81032e-16 1.12757e-16 0)
(6.42331e-17 2.9707e-16 0)
(2.45417e-16 1.10588e-16 0)
(-8.27005e-17 4.98731e-17 0)
(-4.33871e-16 -2.1684e-18 0)
(-4.17407e-16 -4.33679e-18 0)
(-2.67849e-17 0 0)
(3.44576e-16 -2.1684e-18 0)
(9.40567e-17 0 0)
(-5.43829e-24 0 0)
(-8.36978e-20 6.50519e-17 0)
(1.06779e-22 0 0)
(1.09067e-17 -2.1684e-18 0)
(8.35388e-17 6.72203e-17 0)
(3.10751e-16 7.80623e-17 0)
(-1.09134e-17 1.8865e-16 0)
(-3.23583e-16 5.85467e-17 0)
(2.64124e-15 2.1684e-18 0)
(5.99467e-11 4.16332e-16 0)
(1.67332e-07 -4.04623e-15 0)
(4.82818e-05 -8.80405e-16 0)
(0.0020964 1.14065e-14 0)
(0.0214407 -1.35153e-14 0)
(0.0837556 7.96149e-15 0)
(0.188344 -2.07594e-15 0)
(0.316149 1.56151e-15 0)
(0.457397 -4.5186e-16 0)
(0.603404 5.7796e-17 0)
(0.75733 -3.06035e-15 0)
(0.903028 -5.71122e-16 0)
(0.954824 1.01006e-15 0)
(0.931853 2.51482e-15 0)
(0.934014 2.91415e-15 0)
(0.94227 2.79033e-15 0)
(0.960065 5.35135e-17 0)
(0.913663 -1.09018e-15 0)
(0.71276 -1.88094e-16 0)
(0.254523 -2.00488e-15 0)
(0.0133961 -5.35971e-16 0)
(5.92648e-05 3.05727e-16 0)
(1.62927e-08 2.52618e-16 0)
(4.89179e-13 3.39354e-16 0)
(5.58586e-17 1.66967e-16 0)
(-2.6891e-17 8.45675e-17 0)
(-1.44714e-16 2.02745e-16 0)
(-9.65204e-17 2.82976e-16 0)
(2.30045e-17 1.66967e-16 0)
(1.45229e-16 2.53702e-16 0)
(6.25447e-17 2.68881e-16 0)
(-7.22242e-17 1.37693e-16 0)
(-1.78099e-16 2.4286e-16 0)
(-3.36545e-17 2.30934e-16 0)
(1.80092e-17 1.13841e-16 0)
(7.55283e-17 2.1684e-16 0)
(6.17103e-18 2.53702e-16 0)
(3.59046e-17 2.82976e-16 0)
(-2.43039e-17 1.34441e-16 0)
(-1.76606e-16 1.20346e-16 0)
(-3.19978e-17 2.64544e-16 0)
(6.41385e-17 2.86228e-16 0)
(1.96443e-16 1.5504e-16 0)
(1.38501e-16 2.98155e-16 0)
(-5.24828e-17 2.89481e-16 0)
(-1.12294e-16 7.58939e-17 0)
(-1.30083e-17 -6.17993e-17 0)
(4.50052e-17 5.42099e-17 0)
(-4.90228e-17 1.19262e-16 0)
(-7.40818e-17 1.51788e-17 0)
(-3.98862e-17 1.17093e-16 0)
(6.23233e-18 1.40946e-17 0)
(3.08826e-17 7.69781e-17 0)
(-1.38938e-16 1.90819e-16 0)
(-1.5918e-16 3.3827e-16 0)
(-1.24358e-17 2.33103e-16 0)
(-2.05953e-17 8.78201e-17 0)
(1.00599e-16 0 0)
(-5.45305e-17 1.40946e-16 0)
(-1.52896e-16 1.86482e-16 0)
(-3.11165e-16 1.60461e-16 0)
(-2.1684e-18 2.1684e-18 0)
(2.15161e-16 2.1684e-18 0)
(5.24064e-16 2.1684e-18 0)
(1.7185e-16 1.64798e-16 0)
(-3.33162e-16 -7.37255e-17 0)
(-4.08471e-16 -4.31511e-16 0)
(-1.29092e-16 -1.53956e-16 0)
(5.76788e-20 2.1684e-18 0)
(-4.47245e-21 0 0)
(6.92466e-17 -2.1684e-18 0)
(2.85215e-16 -6.07151e-17 0)
(1.05469e-16 1.14925e-16 0)
(2.8623e-16 0 0)
(1.03197e-16 9.54094e-17 0)
(1.82756e-16 -2.81892e-17 0)
(-1.04135e-17 9.10727e-17 0)
(-2.41628e-16 2.1684e-18 0)
(-1.0452e-17 2.1684e-18 0)
(-5.30039e-17 -1.30104e-17 0)
(-2.67923e-16 0 0)
(4.09287e-17 0 0)
(2.5823e-16 2.55871e-16 0)
(1.16632e-17 3.46943e-17 0)
(-4.92523e-17 -7.37255e-17 0)
(2.85289e-21 -3.25259e-16 0)
(-1.87285e-16 -1.34441e-16 0)
(-1.83747e-16 -1.10588e-16 0)
(4.82835e-17 0 0)
(9.4665e-17 2.1684e-18 0)
(2.59733e-24 0 0)
(-3.71905e-21 0 0)
(-1.52361e-18 0 0)
(2.27411e-20 0 0)
(4.40853e-17 2.1684e-18 0)
(2.2426e-16 0 0)
(9.82023e-17 9.97462e-17 0)
(-9.419e-17 -9.97462e-17 0)
(-1.61616e-16 2.1684e-18 0)
(2.35616e-15 1.95156e-17 0)
(5.99457e-11 6.2233e-16 0)
(1.67332e-07 5.35594e-16 0)
(4.82818e-05 -4.5755e-15 0)
(0.0020964 1.98305e-14 0)
(0.0214407 -1.88849e-14 0)
(0.0837556 1.47266e-14 0)
(0.188344 -6.68843e-15 0)
(0.316149 -3.96097e-16 0)
(0.457397 6.49448e-16 0)
(0.603404 -1.93803e-15 0)
(0.75733 -1.26199e-15 0)
(0.903028 -1.1062e-15 0)
(0.954824 -1.68411e-15 0)
(0.931853 1.72141e-16 0)
(0.934014 -2.48457e-15 0)
(0.94227 -9.65688e-17 0)
(0.960065 1.04117e-15 0)
(0.913663 -2.21503e-15 0)
(0.71276 2.95972e-15 0)
(0.254523 -6.15821e-15 0)
(0.0133961 1.01299e-15 0)
(5.92648e-05 3.55598e-16 0)
(1.62927e-08 1.57209e-16 0)
(4.88575e-13 6.02814e-16 0)
(-1.11325e-16 -4.01153e-17 0)
(-4.31792e-19 0 0)
(5.84019e-17 -6.50519e-18 0)
(-4.46036e-17 1.0083e-16 0)
(4.14808e-17 1.57209e-16 0)
(1.69883e-16 7.04729e-17 0)
(4.73722e-17 9.32411e-17 0)
(3.82418e-19 2.1684e-17 0)
(-7.45633e-17 1.24683e-16 0)
(-7.76837e-18 4.55363e-17 0)
(4.73709e-17 1.2902e-16 0)
(-3.74443e-17 1.38777e-16 0)
(2.31165e-17 5.74625e-17 0)
(1.0505e-16 1.57209e-16 0)
(1.46296e-17 5.74625e-17 0)
(-3.95802e-17 1.27935e-16 0)
(4.74349e-17 2.73218e-16 0)
(-1.2668e-18 3.36101e-16 0)
(8.42379e-17 2.65629e-16 0)
(-4.84311e-18 1.40946e-16 0)
(-3.58131e-17 1.2143e-16 0)
(-1.38173e-16 1.76724e-16 0)
(-3.12849e-17 1.19262e-16 0)
(2.85766e-17 2.14671e-16 0)
(-9.77989e-17 9.21569e-17 0)
(-1.80862e-16 1.26851e-16 0)
(-1.20777e-16 -3.36101e-17 0)
(5.66435e-18 -8.89043e-17 0)
(1.81069e-16 -8.56517e-17 0)
(9.73209e-17 -4.66205e-17 0)
(5.70378e-17 1.8865e-16 0)
(2.48321e-17 3.36101e-16 0)
(-6.18484e-17 2.89481e-16 0)
(-6.31437e-17 6.72203e-17 0)
(-1.30913e-16 -1.27935e-16 0)
(-2.41367e-16 -2.38524e-17 0)
(-3.61038e-16 -1.32272e-16 0)
(0 0 0)
(1.17455e-16 0 0)
(3.82697e-16 0 0)
(7.06015e-18 -1.64798e-16 0)
(-4.15246e-16 -4.51026e-16 0)
(-1.35586e-16 -1.71303e-16 0)
(-5.15627e-18 0 0)
(3.43388e-19 0 0)
(-4.92697e-19 0 0)
(1.27824e-16 2.1684e-18 0)
(3.85424e-16 1.23599e-16 0)
(1.47155e-16 2.68881e-16 0)
(-1.04558e-16 1.0842e-17 0)
(6.55043e-17 -2.34187e-16 0)
(2.49986e-16 -6.50519e-17 0)
(-2.77707e-17 -9.32411e-17 0)
(-3.51836e-16 0 0)
(-7.12023e-17 -9.97462e-17 0)
(-4.56641e-19 -3.77301e-16 0)
(-5.48791e-17 -1.36609e-16 0)
(1.81552e-16 0 0)
(2.23736e-17 1.95156e-17 0)
(-2.17651e-16 -2.23345e-16 0)
(-3.57848e-17 -4.33679e-17 0)
(7.19472e-21 -8.23991e-17 0)
(-4.46744e-23 0 0)
(-6.14553e-22 1.14925e-16 0)
(5.59989e-21 0 0)
(9.95348e-20 0 0)
(-7.46236e-24 0 0)
(-3.47824e-19 0 0)
(-2.67995e-17 0 0)
(8.28518e-19 0 0)
(1.07597e-16 0 0)
(3.64472e-16 0 0)
(4.00907e-17 -1.06251e-16 0)
(-2.79395e-16 0 0)
(-7.60555e-17 0 0)
(2.77649e-15 4.77047e-17 0)
(5.99481e-11 8.6519e-16 0)
(1.67332e-07 4.02021e-15 0)
(4.82818e-05 -1.14669e-14 0)
(0.0020964 1.74324e-14 0)
(0.0214407 -1.71094e-14 0)
(0.0837556 1.24886e-14 0)
(0.188344 -8.28589e-15 0)
(0.316149 2.17353e-16 0)
(0.457397 1.33939e-15 0)
(0.603404 -5.50926e-16 0)
(0.75733 1.6156e-15 0)
(0.903028 -1.53532e-15 0)
(0.954824 -2.46336e-15 0)
(0.931853 -1.78432e-15 0)
(0.934014 -3.20338e-15 0)
(0.94227 -1.33714e-15 0)
(0.960065 -2.30014e-17 0)
(0.913663 -3.64175e-15 0)
(0.71276 3.54859e-15 0)
(0.254523 -4.98205e-15 0)
(0.0133961 -7.03194e-16 0)
(5.92648e-05 1.87881e-15 0)
(1.62927e-08 7.47013e-16 0)
(4.87805e-13 1.63714e-16 0)
(3.35193e-17 -1.43114e-16 0)
(-3.58587e-17 -3.68627e-17 0)
(1.97365e-17 -1.40946e-16 0)
(4.68492e-17 -3.25259e-17 0)
(-6.98818e-17 1.30104e-17 0)
(3.95519e-17 -9.64936e-17 0)
(1.37622e-16 -1.19262e-17 0)
(3.92027e-18 0 0)
(-1.30328e-16 -1.30104e-17 0)
(-2.81814e-17 -1.14925e-16 0)
(6.83601e-17 -1.19262e-17 0)
(-3.54327e-17 -1.73472e-17 0)
(6.70293e-17 -1.20346e-16 0)
(1.68896e-16 -1.73472e-17 0)
(4.42193e-17 0 0)
(1.33805e-17 -7.58939e-18 0)
(9.42292e-17 9.32411e-17 0)
(-2.53448e-18 1.50704e-16 0)
(2.56072e-20 1.09504e-16 0)
(-2.22996e-17 0 0)
(-1.10698e-16 0 0)
(-1.49774e-17 4.44521e-17 0)
(1.29654e-16 1.92987e-16 0)
(6.48385e-18 6.83045e-17 0)
(-1.55903e-16 0 0)
(-3.29401e-16 6.17993e-17 0)
(-2.52474e-16 -6.07151e-17 0)
(-9.04677e-17 1.30104e-17 0)
(7.72941e-17 -1.92987e-16 0)
(2.78968e-16 -2.23345e-16 0)
(2.70654e-16 -2.49366e-17 0)
(4.1288e-17 1.50704e-16 0)
(-1.34184e-16 1.12757e-16 0)
(-2.44088e-16 -9.8662e-17 0)
(-2.15807e-16 -2.95986e-16 0)
(-1.12816e-16 -2.03829e-16 0)
(-1.84314e-16 -3.06828e-16 0)
(0 0 0)
(6.99928e-18 0 0)
(1.39362e-16 -2.1684e-16 0)
(-2.52603e-17 -4.66205e-16 0)
(-1.33065e-16 -1.97324e-16 0)
(-2.63806e-18 0 0)
(8.68129e-18 0 0)
(5.4321e-18 0 0)
(-1.12305e-17 0 0)
(1.0986e-16 0 0)
(3.72427e-16 0 0)
(-2.04779e-18 6.50519e-17 0)
(-3.63435e-16 0 0)
(-8.59385e-17 -5.20415e-17 0)
(8.39376e-17 0 0)
(1.43071e-17 -9.32411e-17 0)
(-1.69149e-16 0 0)
(-1.03442e-17 0 0)
(-1.94362e-18 -1.14925e-16 0)
(-2.03485e-18 0 0)
(7.07584e-17 0 0)
(-5.80761e-19 -9.32411e-17 0)
(-9.89876e-17 -4.55363e-17 0)
(-3.67584e-18 0 0)
(2.45196e-20 0 0)
(-2.05898e-20 0 0)
(-3.67065e-21 0 0)
(1.95816e-19 0 0)
(-2.05005e-19 0 0)
(-2.23675e-21 0 0)
(-6.58451e-18 0 0)
(-1.18451e-16 0 0)
(6.6452e-18 -9.75778e-17 0)
(1.43387e-16 0 0)
(1.80494e-16 -1.66967e-16 0)
(-1.16729e-17 -4.11995e-16 0)
(-9.58503e-17 -1.51788e-16 0)
(-1.68522e-18 0 0)
(2.77244e-15 -1.0842e-17 0)
(5.99475e-11 -4.94394e-16 0)
(1.67332e-07 1.16443e-15 0)
(4.82818e-05 -4.76633e-15 0)
(0.0020964 8.28715e-15 0)
(0.0214407 -6.18677e-15 0)
(0.0837556 7.34871e-15 0)
(0.188344 -3.97708e-15 0)
(0.316149 2.02338e-15 0)
(0.457397 7.98449e-16 0)
(0.603404 -2.27455e-16 0)
(0.75733 -1.02084e-15 0)
(0.903028 9.33167e-16 0)
(0.954824 1.37113e-15 0)
(0.931853 2.99979e-16 0)
(0.934014 -4.90322e-16 0)
(0.94227 4.04488e-16 0)
(0.960065 -1.05713e-15 0)
(0.913663 -2.65763e-15 0)
(0.71276 1.9209e-15 0)
(0.254523 -1.4261e-15 0)
(0.0133961 -3.96618e-16 0)
(5.92648e-05 6.83008e-16 0)
(1.62927e-08 4.73795e-16 0)
(4.8777e-13 -1.0842e-18 0)
(4.82223e-17 -4.01153e-17 0)
(-3.37615e-17 -6.17993e-17 0)
(4.58692e-17 -3.90311e-17 0)
(9.96603e-18 0 0)
(-1.04197e-16 -5.20415e-17 0)
(8.58719e-17 -1.0842e-17 0)
(2.01737e-16 0 0)
(5.41669e-18 7.15571e-17 0)
(-1.87596e-16 0 0)
(-3.30953e-17 -1.30104e-17 0)
(7.02106e-17 -6.61361e-17 0)
(-3.27982e-17 -1.0842e-18 0)
(4.17332e-17 -2.27682e-17 0)
(1.57553e-16 0 0)
(7.43866e-18 0 0)
(4.29952e-17 2.1684e-18 0)
(1.72643e-16 0 0)
(3.98506e-17 0 0)
(-4.78328e-19 0 0)
(-4.76591e-17 0 0)
(-1.83676e-16 0 0)
(1.67536e-17 0 0)
(2.12034e-16 7.26413e-17 0)
(2.79842e-17 0 0)
(-1.45921e-16 0 0)
(-3.4091e-16 0 0)
(-1.91676e-16 0 0)
(-9.5906e-17 -1.6263e-17 0)
(-4.64441e-18 -8.23991e-17 0)
(2.28572e-16 -8.45675e-17 0)
(3.17779e-16 0 0)
(7.64497e-17 0 0)
(-2.41251e-16 0 0)
(-3.47911e-16 5.63783e-17 0)
(-1.9881e-16 -9.32411e-17 0)
(-3.20054e-17 -5.63783e-17 0)
(-2.49366e-17 -1.47451e-16 0)
(2.60208e-17 1.69135e-16 0)
(3.58612e-17 0 0)
(-2.33486e-17 -1.51788e-17 0)
(-3.67905e-17 -2.12503e-16 0)
(-1.64249e-17 -1.51788e-17 0)
(3.90307e-18 0 0)
(8.60768e-17 0 0)
(2.75445e-17 1.04083e-16 0)
(-6.79559e-17 0 0)
(1.10217e-16 -2.1684e-18 0)
(3.94726e-16 0 0)
(2.73959e-17 0 0)
(-3.40828e-16 0 0)
(-5.22331e-17 -6.72203e-17 0)
(1.4797e-16 0 0)
(2.01443e-17 9.32411e-17 0)
(-1.80557e-16 2.81892e-17 0)
(-7.07619e-17 0 0)
(-1.45144e-17 0 0)
(2.99093e-18 0 0)
(1.64366e-16 0 0)
(1.92312e-18 9.32411e-17 0)
(-1.71272e-16 0 0)
(-1.68488e-17 0 0)
(2.91162e-19 0 0)
(-1.78254e-18 0 0)
(-5.36465e-19 0 0)
(1.2574e-18 0 0)
(-6.37359e-18 0 0)
(-1.37545e-19 0 0)
(-3.54951e-17 0 0)
(-1.81728e-16 -1.60461e-16 0)
(1.75544e-17 -3.46943e-16 0)
(2.15111e-16 -1.66967e-16 0)
(4.1204e-17 0 0)
(-2.5831e-17 -1.36609e-16 0)
(1.47012e-17 0 0)
(-9.07255e-18 0 0)
(2.85607e-15 0 0)
(5.99475e-11 4.77047e-17 0)
(1.67332e-07 8.45675e-17 0)
(4.82818e-05 -1.83237e-15 0)
(0.0020964 3.49299e-15 0)
(0.0214407 -3.22644e-15 0)
(0.0837556 1.40963e-16 0)
(0.188344 1.37163e-15 0)
(0.316149 1.58153e-15 0)
(0.457397 -1.39283e-16 0)
(0.603404 8.03551e-16 0)
(0.75733 3.5686e-17 0)
(0.903028 1.7817e-15 0)
(0.954824 1.87116e-15 0)
(0.931853 1.05618e-15 0)
(0.934014 3.27004e-16 0)
(0.94227 -1.30029e-15 0)
(0.960065 -1.39464e-15 0)
(0.913663 -4.48717e-16 0)
(0.71276 5.43384e-16 0)
(0.254523 -1.87015e-15 0)
(0.0133961 8.85424e-16 0)
(5.92648e-05 -1.12534e-15 0)
(1.62927e-08 1.82145e-16 0)
(4.87729e-13 -1.30104e-16 0)
(-1.83234e-17 -8.23991e-17 0)
(-1.05027e-17 -1.8323e-16 0)
(9.77433e-17 -7.69781e-17 0)
(3.63091e-17 0 0)
(-1.17527e-16 5.20415e-17 0)
(6.7725e-17 0 0)
(2.09562e-16 -7.37255e-17 0)
(5.5177e-18 -7.15571e-17 0)
(-1.9906e-16 -9.32411e-17 0)
(-4.37307e-17 -6.17993e-17 0)
(8.27668e-17 -2.03829e-16 0)
(-2.15399e-17 -1.04083e-16 0)
(9.24128e-17 0 0)
(2.21337e-16 -8.23991e-17 0)
(8.02619e-17 -4.98731e-17 0)
(-1.40696e-19 1.02999e-16 0)
(-4.69942e-18 -3.57785e-17 0)
(-1.77133e-18 -1.36609e-16 0)
(6.41222e-18 -1.07336e-16 0)
(5.81544e-17 -9.43252e-17 0)
(-3.24693e-17 0 0)
(1.67917e-17 6.28835e-17 0)
(1.0409e-16 0 0)
(2.71752e-18 0 0)
(-1.33433e-16 0 0)
(-3.20992e-16 0 0)
(-3.25716e-16 2.1684e-17 0)
(-1.77745e-16 -1.26851e-16 0)
(8.04975e-17 -1.0842e-18 0)
(3.02693e-16 0 0)
(2.98224e-16 0 0)
(1.32693e-16 -1.10588e-16 0)
(-1.01836e-16 4.01153e-17 0)
(-3.04885e-16 2.30934e-16 0)
(-3.0612e-16 1.13841e-16 0)
(-1.40311e-16 9.10727e-17 0)
(-6.93887e-17 6.93887e-17 0)
(2.77555e-16 4.22837e-16 0)
(7.44979e-17 1.6263e-16 0)
(-1.04353e-16 1.27935e-16 0)
(-2.10852e-16 -1.25767e-16 0)
(-3.59974e-17 2.1684e-18 0)
(4.93984e-17 0 0)
(2.3481e-16 1.77809e-16 0)
(5.15658e-17 3.55617e-16 0)
(-1.35249e-16 1.77809e-16 0)
(1.34167e-16 1.0842e-16 0)
(2.74946e-16 1.27935e-16 0)
(2.27777e-17 -1.27935e-16 0)
(-2.17438e-16 -7.58939e-17 0)
(-2.16021e-17 -2.64544e-16 0)
(1.87006e-16 -7.37255e-17 0)
(4.10133e-17 -1.95156e-17 0)
(-2.14384e-16 2.36355e-16 0)
(-2.54293e-16 4.77047e-17 0)
(-7.06755e-17 0 0)
(2.93631e-17 0 0)
(2.54458e-16 0 0)
(1.49098e-17 -1.95156e-17 0)
(-2.43714e-16 0 0)
(-3.11626e-17 0 0)
(3.46618e-18 0 0)
(-3.38647e-17 0 0)
(-1.41605e-17 0 0)
(2.02623e-18 0 0)
(-5.19692e-17 0 0)
(-2.55052e-18 0 0)
(-7.03644e-17 0 0)
(-3.07278e-16 8.67359e-18 0)
(3.49273e-17 2.1684e-17 0)
(3.33739e-16 0 0)
(6.15019e-17 0 0)
(-7.08036e-17 0 0)
(7.98921e-17 0 0)
(-4.47593e-17 0 0)
(2.84774e-15 -8.89043e-17 0)
(5.99472e-11 -5.09573e-16 0)
(1.67332e-07 2.8406e-16 0)
(4.82818e-05 -9.19438e-16 0)
(0.0020964 2.333e-15 0)
(0.0214407 -2.38505e-15 0)
(0.0837556 -5.15389e-15 0)
(0.188344 4.82812e-15 0)
(0.316149 2.28792e-16 0)
(0.457397 -4.04893e-16 0)
(0.603404 8.35245e-16 0)
(0.75733 2.59318e-15 0)
(0.903028 1.42373e-15 0)
(0.954824 1.35076e-15 0)
(0.931853 4.74826e-16 0)
(0.934014 1.37505e-15 0)
(0.94227 -8.35659e-16 0)
(0.960065 -2.17481e-15 0)
(0.913663 6.29223e-16 0)
(0.71276 -6.28211e-16 0)
(0.254523 -2.99402e-15 0)
(0.0133961 2.87709e-15 0)
(5.92648e-05 -2.47401e-15 0)
(1.62927e-08 4.29343e-16 0)
(4.87789e-13 -4.65121e-16 0)
(-1.69786e-16 -8.67359e-17 0)
(9.51661e-18 -8.23991e-17 0)
(1.97472e-16 0 0)
(1.31515e-16 -7.69781e-17 0)
(2.07342e-17 2.60208e-17 0)
(-3.88379e-17 -7.80623e-17 0)
(8.20428e-17 -2.00577e-16 0)
(-3.87486e-19 -1.24683e-16 0)
(-6.67707e-17 -2.25513e-16 0)
(-4.95522e-17 -8.56517e-17 0)
(9.18631e-17 -4.87889e-17 0)
(-1.15868e-17 -1.0842e-18 0)
(9.58905e-18 -7.26413e-17 0)
(1.47142e-16 -2.10334e-16 0)
(1.22144e-16 -1.9624e-16 0)
(5.43058e-18 -7.91465e-17 0)
(-1.06431e-16 -2.01661e-16 0)
(-4.49608e-18 -3.15502e-16 0)
(2.19136e-17 -2.74302e-16 0)
(1.21197e-16 -2.66713e-16 0)
(4.38278e-17 -1.25767e-16 0)
(3.58471e-17 -6.28835e-17 0)
(9.32435e-17 0 0)
(-8.9778e-18 0 0)
(-4.50433e-17 -6.72203e-17 0)
(-2.42985e-16 0 0)
(-3.49561e-16 1.63714e-16 0)
(-1.52419e-16 7.26413e-17 0)
(3.86355e-17 0 0)
(2.11156e-16 9.10727e-17 0)
(2.56214e-16 -1.14925e-16 0)
(1.11148e-16 -2.75386e-16 0)
(5.05058e-17 -7.69781e-17 0)
(-2.13222e-16 5.09573e-17 0)
(-2.59521e-16 2.2985e-16 0)
(-1.46552e-16 2.76471e-16 0)
(-2.48281e-16 2.46113e-16 0)
(4.81384e-16 2.19008e-16 0)
(1.27996e-16 1.04083e-16 0)
(-2.04714e-16 1.73472e-17 0)
(-3.25168e-16 1.38777e-16 0)
(-4.11001e-17 2.38524e-17 0)
(1.89563e-16 1.34441e-16 0)
(4.5942e-16 1.58293e-16 0)
(8.01534e-17 1.58293e-16 0)
(-3.22734e-16 1.82145e-16 0)
(2.21614e-16 3.59954e-16 0)
(-8.25473e-17 5.20415e-17 0)
(-2.06218e-16 -2.51534e-16 0)
(-1.44388e-16 4.81481e-34 0)
(-9.86962e-17 8.02307e-17 0)
(2.0198e-16 -2.1684e-18 0)
(2.74847e-16 -2.55871e-16 0)
(-3.57473e-17 5.42099e-17 0)
(-4.02056e-16 2.25513e-16 0)
(-1.39545e-16 5.42099e-17 0)
(8.74382e-17 1.43114e-16 0)
(-1.2085e-16 6.50519e-18 0)
(-1.04472e-16 -2.64544e-16 0)
(9.79014e-17 -1.95156e-17 0)
(2.51571e-16 1.69135e-16 0)
(1.62593e-17 1.14925e-16 0)
(-1.85775e-16 2.38524e-17 0)
(-8.9781e-17 0 0)
(-6.66147e-18 0 0)
(-1.62951e-16 2.60208e-17 0)
(-1.93729e-17 -4.33679e-18 0)
(7.90456e-17 2.60208e-17 0)
(-1.01834e-16 2.08166e-16 0)
(7.98884e-17 3.88143e-16 0)
(4.51339e-17 1.2143e-16 0)
(-1.64439e-16 0 0)
(-1.02043e-16 -1.12757e-16 0)
(8.20145e-17 0 0)
(-8.62055e-17 1.30104e-17 0)
(2.99181e-15 -3.64291e-16 0)
(5.99466e-11 2.81892e-17 0)
(1.67332e-07 -1.95156e-16 0)
(4.82818e-05 3.16599e-16 0)
(0.0020964 -2.54154e-15 0)
(0.0214407 1.20909e-15 0)
(0.0837556 -8.1211e-15 0)
(0.188344 6.29927e-15 0)
(0.316149 -2.52959e-15 0)
(0.457397 5.13404e-16 0)
(0.603404 5.46265e-16 0)
(0.75733 -5.70976e-16 0)
(0.903028 2.44874e-15 0)
(0.954824 2.68782e-15 0)
(0.931853 2.12387e-15 0)
(0.934014 1.19062e-15 0)
(0.94227 1.5163e-15 0)
(0.960065 -1.03553e-15 0)
(0.913663 1.29363e-15 0)
(0.71276 -2.06412e-15 0)
(0.254523 -5.99158e-16 0)
(0.0133961 8.61841e-16 0)
(5.92648e-05 4.39076e-16 0)
(1.62927e-08 2.05998e-17 0)
(4.88507e-13 -4.62953e-16 0)
(-3.06939e-18 -1.95156e-17 0)
(-4.49319e-17 -7.48097e-17 0)
(8.10066e-17 -4.87889e-17 0)
(2.25288e-16 -1.69135e-16 0)
(8.54861e-17 -1.34441e-16 0)
(-7.16872e-17 2.49366e-17 0)
(2.95467e-17 -5.52941e-17 0)
(5.23867e-19 -1.73472e-17 0)
(-3.07106e-17 -1.18178e-16 0)
(7.55612e-17 -1.6263e-17 0)
(2.49055e-17 3.90311e-17 0)
(-7.98913e-17 -6.28835e-17 0)
(-9.73517e-17 3.79469e-17 0)
(4.1689e-17 -8.67359e-17 0)
(1.57731e-16 -6.39677e-17 0)
(-7.27922e-18 -1.0842e-17 0)
(-1.51098e-16 -1.51788e-16 0)
(-4.35856e-18 -1.47451e-16 0)
(5.72248e-17 -1.05167e-16 0)
(1.99832e-16 -1.16009e-16 0)
(9.87642e-17 -2.17924e-16 0)
(1.38394e-16 -7.26413e-17 0)
(1.19262e-16 0 0)
(-1.5556e-17 -8.34833e-17 0)
(1.24933e-17 -2.23345e-16 0)
(-2.41177e-18 -1.30104e-17 0)
(-2.06285e-16 1.94071e-16 0)
(-2.01686e-16 2.69965e-16 0)
(-3.10722e-17 1.02999e-16 0)
(8.43858e-17 0 0)
(1.00613e-16 -9.97462e-17 0)
(2.44806e-16 -1.98408e-16 0)
(1.83937e-16 -6.93887e-17 0)
(-2.94232e-17 -8.34833e-17 0)
(-1.42536e-16 9.64936e-17 0)
(-2.09426e-16 1.19262e-16 0)
(-3.5887e-16 1.38777e-16 0)
(3.16586e-16 1.0842e-17 0)
(7.71058e-17 2.64544e-16 0)
(-2.03363e-16 1.97324e-16 0)
(-1.07874e-16 3.79469e-16 0)
(9.00144e-17 2.19008e-16 0)
(2.92351e-16 4.18501e-16 0)
(2.75362e-16 3.40438e-16 0)
(8.2752e-18 1.23599e-16 0)
(-1.42928e-16 1.97324e-16 0)
(-1.2243e-16 1.73472e-17 0)
(-2.40505e-16 -2.60208e-16 0)
(-1.16406e-17 -3.68627e-17 0)
(-1.78764e-16 2.38524e-16 0)
(-3.80953e-17 4.31511e-16 0)
(2.06478e-16 1.90819e-16 0)
(9.34762e-17 -7.58939e-17 0)
(4.63051e-17 1.60461e-16 0)
(-2.26717e-16 4.38016e-16 0)
(-4.81469e-17 2.53702e-16 0)
(1.0074e-16 4.20669e-16 0)
(-1.42591e-16 2.27682e-16 0)
(-1.3326e-16 6.28835e-17 0)
(1.26029e-16 1.86482e-16 0)
(3.91872e-16 4.92226e-16 0)
(2.1292e-17 3.77301e-16 0)
(-3.38431e-16 2.27682e-16 0)
(-1.83892e-16 2.81892e-17 0)
(-2.28121e-17 6.50519e-17 0)
(-2.06779e-16 2.4286e-16 0)
(-8.68801e-17 -8.67359e-18 0)
(1.76468e-16 0 0)
(9.29212e-17 0 0)
(1.78462e-16 1.64798e-16 0)
(-4.09661e-17 3.79469e-16 0)
(-2.29866e-16 1.97324e-16 0)
(1.20499e-17 1.10588e-16 0)
(9.54396e-17 2.60208e-17 0)
(-9.40596e-17 2.10334e-16 0)
(2.48378e-15 -1.23599e-16 0)
(5.99476e-11 8.23991e-16 0)
(1.67332e-07 -2.22694e-15 0)
(4.82818e-05 3.69076e-15 0)
(0.0020964 -1.35288e-14 0)
(0.0214407 7.76907e-15 0)
(0.0837556 -9.58199e-15 0)
(0.188344 3.70403e-15 0)
(0.316149 -5.25079e-15 0)
(0.457397 9.39351e-17 0)
(0.603404 1.43185e-15 0)
(0.75733 4.53104e-16 0)
(0.903028 2.33684e-15 0)
(0.954824 1.5161e-15 0)
(0.931853 1.21074e-15 0)
(0.934014 -6.56972e-16 0)
(0.94227 9.18251e-16 0)
(0.960065 1.07966e-17 0)
(0.913663 -2.40675e-16 0)
(0.71276 -4.20877e-15 0)
(0.254523 5.04676e-15 0)
(0.0133961 -2.92533e-15 0)
(5.92648e-05 2.94019e-15 0)
(1.62927e-08 -3.35017e-16 0)
(4.88563e-13 4.60784e-16 0)
(-1.26061e-16 -5.96309e-17 0)
(-2.18618e-17 -1.66967e-16 0)
(1.04242e-16 -5.63783e-17 0)
(9.2431e-17 1.0842e-18 0)
(1.94183e-16 -1.0083e-16 0)
(4.44549e-17 0 0)
(-1.33562e-16 1.12757e-16 0)
(-4.3315e-17 2.05998e-17 0)
(-6.61713e-18 1.22514e-16 0)
(9.75298e-17 1.95156e-17 0)
(1.8642e-17 -6.28835e-17 0)
(-8.92035e-17 3.14417e-17 0)
(5.05713e-18 1.45283e-16 0)
(1.38377e-16 8.67359e-17 0)
(8.31194e-17 0 0)
(-7.1103e-17 -8.99885e-17 0)
(-7.16176e-17 5.74625e-17 0)
(7.14294e-17 1.24683e-16 0)
(-3.04577e-24 2.27682e-17 0)
(2.83195e-17 6.39677e-17 0)
(1.44828e-16 -5.31257e-17 0)
(2.28948e-16 0 0)
(3.37088e-17 0 0)
(-1.3944e-16 -1.36609e-16 0)
(3.03028e-17 -4.11995e-17 0)
(1.54423e-16 0 0)
(-2.77566e-17 -1.40946e-17 0)
(-1.85777e-16 1.45283e-16 0)
(-1.19761e-16 3.25259e-18 0)
(5.71339e-17 1.6263e-17 0)
(9.28599e-17 9.97462e-17 0)
(1.96688e-16 5.74625e-17 0)
(1.12005e-16 -1.22514e-16 0)
(-1.24905e-16 -1.84314e-16 0)
(-2.39191e-16 -3.03576e-17 0)
(-1.61459e-16 0 0)
(-2.64544e-16 3.25259e-17 0)
(5.20415e-16 -1.97324e-16 0)
(1.56608e-16 -9.54094e-17 0)
(-2.11741e-16 -6.93887e-17 0)
(-1.50432e-16 1.27935e-16 0)
(1.56986e-16 3.90311e-17 0)
(3.93408e-16 1.34441e-16 0)
(8.46052e-17 -2.38524e-17 0)
(-8.97863e-17 -2.21176e-16 0)
(-3.59158e-16 -1.64798e-16 0)
(-3.82388e-16 -3.49112e-16 0)
(-4.00704e-17 -5.63783e-17 0)
(1.9076e-16 2.8406e-16 0)
(-1.69251e-17 8.45675e-17 0)
(-2.18916e-16 2.51534e-16 0)
(-2.7652e-17 -4.33679e-18 0)
(2.7759e-16 -2.1684e-17 0)
(1.47139e-16 -1.2143e-16 0)
(-5.82739e-17 6.28835e-17 0)
(1.16359e-18 2.1684e-18 0)
(3.64387e-17 5.20415e-17 0)
(-1.48431e-16 -1.30104e-16 0)
(-1.33877e-16 4.33679e-18 0)
(1.46272e-16 4.33679e-18 0)
(2.6556e-16 1.23599e-16 0)
(-1.10942e-16 8.67359e-18 0)
(-5.33653e-16 2.1684e-18 0)
(-1.97148e-16 0 0)
(1.62528e-16 0 0)
(-3.50687e-17 -2.1684e-18 0)
(-3.01638e-16 -2.23345e-16 0)
(-8.77523e-18 0 0)
(1.75466e-16 0 0)
(4.68557e-16 0 0)
(1.01429e-16 4.55363e-17 0)
(-2.68024e-16 1.51788e-17 0)
(-8.68008e-18 1.6263e-16 0)
(2.29283e-16 0 0)
(-5.14276e-17 4.33679e-18 0)