/*--------------------------------*- C++ -*----------------------------------*\
| =========                 |                                                 |
| \\      /  F ield         | OpenFOAM: The Open Source CFD Toolbox           |
|  \\    /   O peration     | Version:  4.1                                   |
|   \\  /    A nd           | Web:      www.OpenFOAM.org                      |
|    \\/     M anipulation  |                                                 |
\*---------------------------------------------------------------------------*/
FoamFile
{
    version     2.0;
    format      ascii;
    class       volVectorField;
    location    "0.33";
    object      U;
}
// * * * * * * * * * * * * * * * * * * * * * * * * * * * * * * * * * * * * * //

dimensions      [0 1 -1 0 0 0 0];

internalField   nonuniform List<vector> 
10000
(
(0 0 0)
(1.56847e-16 0 0)
(3.01175e-16 0 0)
(9.92776e-17 1.53956e-16 0)
(-1.22962e-16 0 0)
(-2.85061e-16 0 0)
(-2.56901e-16 0 0)
(-3.78772e-17 0 0)
(-7.21302e-22 0 0)
(2.33143e-16 1.47451e-16 0)
(4.93516e-16 0 0)
(1.60858e-16 -1.56125e-16 0)
(-2.20358e-16 0 0)
(4.31403e-17 0 0)
(1.60508e-16 0 0)
(-4.83987e-17 1.32272e-16 0)
(-2.57036e-16 0 0)
(-1.4178e-16 0 0)
(-3.77931e-17 0 0)
(-2.01359e-16 0 0)
(-3.95606e-19 0 0)
(1.57708e-16 1.19262e-16 0)
(2.59681e-17 0 0)
(6.67034e-16 0 0)
(9.03063e-12 1.34441e-16 0)
(2.37564e-08 1.73472e-16 0)
(7.14151e-06 -8.28983e-15 0)
(0.000348437 4.80441e-15 0)
(0.00415118 -6.00149e-15 0)
(0.0186357 3.49827e-15 0)
(0.0462021 1.06832e-14 0)
(0.0824686 8.7622e-15 0)
(0.123111 1.09919e-14 0)
(0.165943 6.36703e-15 0)
(0.210027 6.70785e-15 0)
(0.254928 1.68501e-14 0)
(0.300415 -2.09621e-14 0)
(0.346354 1.37329e-14 0)
(0.392665 -9.5686e-15 0)
(0.439304 1.18015e-14 0)
(0.486253 1.79408e-14 0)
(0.533511 6.62601e-14 0)
(0.581088 4.62571e-14 0)
(0.628991 3.42379e-14 0)
(0.67721 7.97794e-15 0)
(0.725685 2.06463e-14 0)
(0.774225 2.06777e-15 0)
(0.822368 6.01864e-14 0)
(0.868582 3.58761e-14 0)
(0.908788 -2.98515e-14 0)
(0.933174 -3.77258e-14 0)
(0.93633 8.19153e-15 0)
(0.925066 1.0975e-14 0)
(0.926443 1.2284e-14 0)
(0.927501 1.30966e-14 0)
(0.927745 1.22151e-14 0)
(0.927863 8.15285e-15 0)
(0.927992 6.91184e-15 0)
(0.928258 6.36863e-15 0)
(0.928414 5.61289e-15 0)
(0.928249 5.12458e-15 0)
(0.928098 8.52989e-15 0)
(0.928124 5.68038e-15 0)
(0.928293 7.93184e-15 0)
(0.928669 5.678e-15 0)
(0.929172 4.19668e-16 0)
(0.928602 -5.39353e-15 0)
(0.926641 -4.2117e-15 0)
(0.930126 -1.01969e-14 0)
(0.931072 -6.43686e-15 0)
(0.928075 -3.8518e-15 0)
(0.925975 -3.99264e-15 0)
(0.925197 -3.15728e-15 0)
(0.92503 -3.09017e-15 0)
(0.925974 -3.22282e-15 0)
(0.926174 -4.24335e-15 0)
(0.923262 -4.45523e-15 0)
(0.901539 -5.16998e-15 0)
(0.779539 -4.41964e-15 0)
(0.389391 -1.8627e-15 0)
(0.0382603 2.41404e-17 0)
(0.000332139 3.28414e-16 0)
(1.87787e-07 1.79977e-16 0)
(6.03475e-12 6.93887e-17 0)
(5.34438e-16 1.34441e-16 0)
(1.9149e-17 0 0)
(-1.94034e-16 0 0)
(-9.12881e-17 0 0)
(-9.15754e-17 0 0)
(-2.04341e-16 0 0)
(-2.75379e-16 -6.50519e-18 0)
(-4.26067e-16 0 0)
(-2.38895e-16 1.16009e-16 0)
(4.64564e-17 0 0)
(2.5898e-16 0 0)
(2.30831e-17 0 0)
(-2.29295e-16 1.71303e-16 0)
(-3.03194e-16 1.2902e-16 0)
(-2.20491e-16 6.17993e-17 0)
(-8.99885e-17 1.38777e-16 0)
(0 0 0)
(2.00999e-16 0 0)
(3.0898e-16 1.38777e-16 0)
(1.02665e-16 3.3827e-16 0)
(-1.268e-16 1.25767e-16 0)
(-3.19513e-16 2.51534e-16 0)
(-3.0374e-16 4.98731e-17 0)
(-4.60172e-17 0 0)
(-4.03796e-20 0 0)
(2.40954e-16 0 0)
(5.42726e-16 0 0)
(1.78641e-16 0 0)
(-1.864e-16 0 0)
(6.5334e-17 0 0)
(1.64906e-16 1.30104e-16 0)
(-5.16264e-17 3.16586e-16 0)
(-2.61328e-16 1.27935e-16 0)
(-1.5888e-16 0 0)
(-6.02906e-17 0 0)
(-2.20448e-16 0 0)
(-4.69182e-19 0 0)
(1.52271e-16 2.1684e-18 0)
(-2.89562e-17 0 0)
(7.81369e-16 1.7564e-16 0)
(9.03106e-12 7.48097e-16 0)
(2.37564e-08 1.32055e-15 0)
(7.14151e-06 -4.31514e-15 0)
(0.000348437 9.36373e-15 0)
(0.00415118 2.98551e-15 0)
(0.0186357 -5.12845e-15 0)
(0.0462021 2.00572e-14 0)
(0.0824686 -1.10909e-14 0)
(0.123111 1.30421e-14 0)
(0.165943 4.83684e-15 0)
(0.210027 6.56104e-15 0)
(0.254928 7.61075e-15 0)
(0.300415 -3.67146e-15 0)
(0.346354 2.11785e-14 0)
(0.392665 -9.81168e-15 0)
(0.439304 1.54987e-14 0)
(0.486253 2.80951e-14 0)
(0.533511 1.73735e-14 0)
(0.581088 2.03229e-14 0)
(0.628991 3.08685e-14 0)
(0.67721 2.5348e-14 0)
(0.725685 2.06911e-14 0)
(0.774225 7.27163e-15 0)
(0.822368 3.06181e-14 0)
(0.868582 1.65061e-14 0)
(0.908788 7.11623e-15 0)
(0.933174 -1.69672e-14 0)
(0.93633 8.35197e-15 0)
(0.925066 8.68672e-15 0)
(0.926443 1.22472e-14 0)
(0.927501 9.54964e-15 0)
(0.927745 1.05595e-14 0)
(0.927863 6.23241e-15 0)
(0.927992 4.60048e-15 0)
(0.928258 5.92088e-15 0)
(0.928414 6.38577e-15 0)
(0.928249 1.10097e-14 0)
(0.928098 1.16141e-14 0)
(0.928124 8.37362e-15 0)
(0.928293 5.84962e-15 0)
(0.928669 7.44822e-15 0)
(0.929172 2.24371e-15 0)
(0.928602 3.64092e-15 0)
(0.926641 -1.04962e-15 0)
(0.930126 -7.88642e-15 0)
(0.931072 -1.40366e-16 0)
(0.928075 -5.03191e-15 0)
(0.925975 -1.6334e-15 0)
(0.925197 -1.96745e-15 0)
(0.92503 -1.46693e-15 0)
(0.925974 1.51083e-15 0)
(0.926174 1.93793e-15 0)
(0.923262 9.81443e-16 0)
(0.901539 -2.0487e-15 0)
(0.779539 -2.7969e-15 0)
(0.389391 -3.28385e-15 0)
(0.0382603 1.06847e-15 0)
(0.000332139 3.55511e-16 0)
(1.87787e-07 5.1391e-16 0)
(6.03472e-12 3.61038e-16 0)
(4.83608e-16 2.37439e-16 0)
(1.82313e-17 1.84314e-17 0)
(-1.99906e-16 0 0)
(-9.79805e-17 1.73472e-17 0)
(-1.3459e-16 0 0)
(-2.5921e-16 4.01153e-17 0)
(-1.82426e-16 3.68627e-17 0)
(-2.96081e-16 1.9624e-16 0)
(-1.7658e-16 3.16586e-16 0)
(1.5796e-17 1.25767e-16 0)
(2.25818e-16 0 0)
(-6.41704e-18 4.77047e-17 0)
(-2.55114e-16 2.94902e-16 0)
(-3.63267e-16 3.31765e-16 0)
(-3.17831e-16 2.49366e-16 0)
(-2.9707e-16 3.43691e-16 0)
(0 0 0)
(2.55722e-16 0 0)
(5.27119e-16 0 0)
(1.15957e-16 1.04083e-16 0)
(-3.60401e-16 3.44775e-16 0)
(-3.25161e-16 5.74625e-16 0)
(-3.3653e-16 2.53702e-16 0)
(-3.4966e-17 0 0)
(-9.25175e-19 0 0)
(2.51432e-16 0 0)
(5.76929e-16 0 0)
(2.12869e-16 2.1684e-18 0)
(-1.46483e-16 5.85467e-17 0)
(8.34995e-17 2.86228e-16 0)
(3.27586e-16 1.6263e-16 0)
(-3.91431e-17 7.80623e-17 0)
(-4.08258e-16 0 0)
(-1.67878e-16 0 0)
(-9.10451e-17 1.01915e-16 0)
(-2.21848e-16 0 0)
(1.69013e-18 0 0)
(2.35856e-16 1.51788e-17 0)
(8.74261e-17 1.66967e-16 0)
(6.98806e-16 4.42353e-16 0)
(9.03221e-12 2.45679e-15 0)
(2.37564e-08 3.21356e-15 0)
(7.14151e-06 -3.05312e-15 0)
(0.000348437 1.278e-14 0)
(0.00415118 9.9314e-15 0)
(0.0186357 -2.34745e-14 0)
(0.0462021 3.34321e-14 0)
(0.0824686 -1.55633e-14 0)
(0.123111 1.14725e-14 0)
(0.165943 4.34178e-15 0)
(0.210027 6.67147e-15 0)
(0.254928 7.24041e-15 0)
(0.300415 1.20459e-15 0)
(0.346354 2.36007e-14 0)
(0.392665 -9.70008e-15 0)
(0.439304 1.55481e-14 0)
(0.486253 3.27127e-14 0)
(0.533511 3.12087e-15 0)
(0.581088 1.09007e-14 0)
(0.628991 2.47101e-14 0)
(0.67721 2.77809e-14 0)
(0.725685 1.55426e-14 0)
(0.774225 9.72867e-15 0)
(0.822368 2.00224e-14 0)
(0.868582 1.12129e-14 0)
(0.908788 1.21869e-14 0)
(0.933174 -1.46899e-14 0)
(0.93633 8.30128e-15 0)
(0.925066 8.79204e-15 0)
(0.926443 1.38014e-14 0)
(0.927501 9.58397e-15 0)
(0.927745 7.58168e-15 0)
(0.927863 1.88456e-15 0)
(0.927992 2.02097e-15 0)
(0.928258 2.88682e-15 0)
(0.928414 4.17453e-15 0)
(0.928249 9.04178e-15 0)
(0.928098 1.03241e-14 0)
(0.928124 7.95021e-15 0)
(0.928293 6.5965e-15 0)
(0.928669 8.25232e-15 0)
(0.929172 3.90636e-15 0)
(0.928602 4.41875e-15 0)
(0.926641 1.04814e-15 0)
(0.930126 -6.28314e-15 0)
(0.931072 4.15668e-15 0)
(0.928075 -3.15176e-15 0)
(0.925975 1.93249e-15 0)
(0.925197 7.99227e-16 0)
(0.92503 1.39855e-16 0)
(0.925974 2.68038e-15 0)
(0.926174 3.82819e-15 0)
(0.923262 3.07823e-15 0)
(0.901539 6.26759e-16 0)
(0.779539 8.69533e-16 0)
(0.389391 1.72501e-16 0)
(0.0382603 2.59037e-15 0)
(0.000332139 -3.17575e-16 0)
(1.87787e-07 1.58184e-15 0)
(6.03454e-12 8.28327e-16 0)
(2.49881e-16 9.75778e-17 0)
(-4.40994e-17 -8.45675e-17 0)
(-1.7207e-16 4.33679e-17 0)
(-9.18726e-17 1.7564e-16 0)
(-1.93408e-16 7.37255e-17 0)
(-2.95499e-16 1.77809e-16 0)
(-1.55481e-16 1.79977e-16 0)
(-1.08471e-16 3.85975e-16 0)
(-1.49888e-16 5.22584e-16 0)
(-5.45813e-17 3.8489e-16 0)
(1.19357e-16 2.36355e-16 0)
(1.27439e-17 1.26851e-16 0)
(-2.04086e-16 3.3068e-16 0)
(-4.09996e-16 5.35594e-16 0)
(-4.20044e-16 4.48858e-16 0)
(-5.03068e-16 5.48604e-16 0)
(-2.1684e-18 -2.1684e-18 0)
(2.73816e-16 -2.1684e-18 0)
(5.88136e-16 -2.1684e-18 0)
(1.78418e-16 3.90311e-17 0)
(-3.06942e-16 2.86228e-16 0)
(-6.91859e-16 2.05998e-16 0)
(-3.69036e-16 -2.1684e-18 0)
(-2.09444e-17 -2.1684e-18 0)
(-7.63195e-18 0 0)
(1.4942e-16 0 0)
(4.04545e-16 -4.33679e-18 0)
(2.26996e-16 -6.28835e-17 0)
(1.09473e-16 2.75386e-16 0)
(2.12431e-16 6.09319e-16 0)
(2.766e-16 3.44775e-16 0)
(-5.17096e-17 0 0)
(-3.78244e-16 -2.1684e-18 0)
(-1.23089e-16 1.17093e-16 0)
(-9.1963e-17 3.55617e-16 0)
(-2.09174e-16 1.73472e-16 0)
(1.40923e-17 1.73472e-17 0)
(2.42971e-16 2.47197e-16 0)
(7.8237e-17 4.51026e-16 0)
(5.41299e-16 2.32018e-16 0)
(9.03559e-12 1.61762e-15 0)
(2.37564e-08 6.29702e-15 0)
(7.14151e-06 -7.28369e-15 0)
(0.000348437 2.10852e-14 0)
(0.00415118 1.12044e-14 0)
(0.0186357 -3.52911e-14 0)
(0.0462021 4.33981e-14 0)
(0.0824686 -1.26239e-14 0)
(0.123111 8.6068e-15 0)
(0.165943 6.46579e-15 0)
(0.210027 5.3008e-15 0)
(0.254928 7.654e-15 0)
(0.300415 -8.30266e-17 0)
(0.346354 2.7935e-14 0)
(0.392665 -9.33776e-15 0)
(0.439304 1.29291e-14 0)
(0.486253 2.89743e-14 0)
(0.533511 -5.10576e-15 0)
(0.581088 6.15507e-15 0)
(0.628991 2.02838e-14 0)
(0.67721 2.73397e-14 0)
(0.725685 1.25015e-14 0)
(0.774225 8.99057e-15 0)
(0.822368 1.57956e-14 0)
(0.868582 8.06351e-15 0)
(0.908788 9.32773e-15 0)
(0.933174 -1.11899e-14 0)
(0.93633 1.02247e-14 0)
(0.925066 1.24016e-14 0)
(0.926443 1.14353e-14 0)
(0.927501 1.11796e-14 0)
(0.927745 5.96711e-15 0)
(0.927863 1.73622e-15 0)
(0.927992 2.88102e-15 0)
(0.928258 4.11495e-16 0)
(0.928414 2.06591e-15 0)
(0.928249 5.75246e-15 0)
(0.928098 7.06978e-15 0)
(0.928124 8.57586e-15 0)
(0.928293 6.40439e-15 0)
(0.928669 4.8612e-15 0)
(0.929172 3.7495e-15 0)
(0.928602 4.50088e-15 0)
(0.926641 5.84176e-15 0)
(0.930126 -1.79823e-15 0)
(0.931072 4.8539e-15 0)
(0.928075 -9.69376e-16 0)
(0.925975 4.58721e-15 0)
(0.925197 2.47642e-15 0)
(0.92503 2.55543e-15 0)
(0.925974 4.45293e-15 0)
(0.926174 2.65036e-15 0)
(0.923262 3.02385e-15 0)
(0.901539 1.0194e-15 0)
(0.779539 5.98883e-17 0)
(0.389391 2.21403e-15 0)
(0.0382603 5.32453e-15 0)
(0.000332139 1.49683e-15 0)
(1.87787e-07 1.30212e-15 0)
(6.03357e-12 8.29412e-16 0)
(4.01826e-17 2.47197e-16 0)
(-3.93527e-17 1.40946e-16 0)
(7.89076e-18 2.20092e-16 0)
(-1.62184e-16 2.39608e-16 0)
(-2.95062e-16 8.67359e-17 0)
(-1.939e-16 1.87566e-16 0)
(-8.8664e-17 8.67359e-17 0)
(1.4562e-17 1.94071e-16 0)
(-1.62852e-16 3.76217e-16 0)
(-2.0803e-16 5.84383e-16 0)
(-9.35117e-17 5.23668e-16 0)
(-1.63315e-16 3.53449e-16 0)
(-9.31723e-17 2.21176e-16 0)
(-2.88613e-16 3.15502e-16 0)
(-5.5455e-16 2.1684e-16 0)
(-7.47013e-16 3.10081e-16 0)
(-2.1684e-18 2.1684e-18 0)
(2.52686e-16 2.1684e-18 0)
(5.74892e-16 2.1684e-18 0)
(1.50639e-16 1.66967e-16 0)
(-6.31848e-16 -1.66967e-16 0)
(-6.67703e-16 -5.44268e-16 0)
(-3.23344e-16 -2.40692e-16 0)
(1.50838e-18 2.1684e-18 0)
(-2.66555e-17 0 0)
(1.63403e-16 -2.1684e-18 0)
(4.20399e-16 7.37255e-17 0)
(2.38617e-16 2.55871e-16 0)
(3.28107e-16 7.58939e-17 0)
(1.96342e-16 2.49366e-16 0)
(2.89928e-16 6.93887e-17 0)
(-4.9766e-17 9.32411e-17 0)
(-3.93789e-16 2.1684e-18 0)
(-1.52995e-16 2.1684e-18 0)
(-8.32959e-17 -1.51788e-17 0)
(-2.65693e-16 0 0)
(6.53594e-17 1.0842e-17 0)
(3.2248e-16 2.94902e-16 0)
(6.68096e-17 1.06251e-16 0)
(2.53352e-16 -1.73472e-17 0)
(9.03568e-12 1.60461e-16 0)
(2.37564e-08 7.27063e-15 0)
(7.14151e-06 -1.44633e-15 0)
(0.000348437 8.18377e-15 0)
(0.00415118 1.85311e-14 0)
(0.0186357 -4.33473e-14 0)
(0.0462021 4.10244e-14 0)
(0.0824686 -1.02487e-14 0)
(0.123111 3.43549e-15 0)
(0.165943 5.16688e-15 0)
(0.210027 -2.27103e-15 0)
(0.254928 9.83545e-15 0)
(0.300415 -4.23154e-15 0)
(0.346354 2.91314e-14 0)
(0.392665 -8.62229e-15 0)
(0.439304 9.64342e-15 0)
(0.486253 2.85947e-14 0)
(0.533511 -6.98281e-15 0)
(0.581088 3.76088e-15 0)
(0.628991 1.55808e-14 0)
(0.67721 2.49048e-14 0)
(0.725685 1.10837e-14 0)
(0.774225 5.44443e-15 0)
(0.822368 1.3642e-14 0)
(0.868582 5.57883e-15 0)
(0.908788 7.55678e-15 0)
(0.933174 -4.35303e-16 0)
(0.93633 7.29498e-15 0)
(0.925066 1.04909e-14 0)
(0.926443 5.19879e-15 0)
(0.927501 1.08249e-14 0)
(0.927745 6.19077e-15 0)
(0.927863 1.36331e-15 0)
(0.927992 3.6305e-15 0)
(0.928258 -3.17112e-15 0)
(0.928414 -1.09383e-15 0)
(0.928249 3.61639e-15 0)
(0.928098 5.45734e-15 0)
(0.928124 9.02518e-15 0)
(0.928293 2.5967e-15 0)
(0.928669 5.44692e-15 0)
(0.929172 1.99117e-15 0)
(0.928602 3.07683e-15 0)
(0.926641 9.46958e-15 0)
(0.930126 -5.01088e-16 0)
(0.931072 3.42257e-15 0)
(0.928075 -1.86371e-15 0)
(0.925975 6.44917e-15 0)
(0.925197 1.36738e-15 0)
(0.92503 3.93495e-15 0)
(0.925974 5.17293e-15 0)
(0.926174 -3.27003e-16 0)
(0.923262 2.14707e-15 0)
(0.901539 1.41412e-15 0)
(0.779539 -9.57062e-16 0)
(0.389391 4.42727e-15 0)
(0.0382603 1.0266e-14 0)
(0.000332139 1.30065e-15 0)
(1.87787e-07 1.3791e-15 0)
(6.03345e-12 6.28835e-16 0)
(-3.18705e-18 4.4669e-16 0)
(-3.19021e-17 4.10911e-16 0)
(-3.93258e-17 3.91396e-16 0)
(-3.61228e-16 2.49366e-16 0)
(-4.81527e-16 2.38524e-16 0)
(-3.66034e-16 1.51788e-17 0)
(-2.51811e-17 -1.36609e-16 0)
(2.14389e-16 -1.18178e-16 0)
(1.12779e-16 4.22837e-17 0)
(3.99388e-17 4.17416e-16 0)
(3.19783e-17 6.72203e-16 0)
(-1.8886e-16 5.69204e-16 0)
(-3.19548e-16 1.73472e-16 0)
(-4.95935e-16 -1.35525e-16 0)
(-7.10023e-16 -8.34833e-17 0)
(-8.87958e-16 -1.94071e-16 0)
(0 0 0)
(1.71042e-16 0 0)
(2.60592e-16 -1.47451e-16 0)
(-1.49771e-16 -4.03322e-16 0)
(-7.12432e-16 -5.78962e-16 0)
(-3.99306e-16 -2.47197e-16 0)
(-7.99578e-17 -2.1684e-17 0)
(5.44214e-17 0 0)
(-4.51342e-17 0 0)
(1.72159e-16 4.55363e-17 0)
(4.33432e-16 3.14417e-16 0)
(2.45895e-16 4.96563e-16 0)
(-1.83336e-17 2.2985e-16 0)
(8.2054e-17 -9.75778e-17 0)
(3.11098e-16 -6.50519e-17 0)
(-5.03261e-17 -9.54094e-17 0)
(-4.01091e-16 0 0)
(-2.00336e-16 -9.97462e-17 0)
(-3.63433e-17 -3.81638e-16 0)
(-1.73981e-17 -1.36609e-16 0)
(2.46205e-16 0 0)
(4.95798e-17 4.77047e-17 0)
(-2.65701e-16 -1.92987e-16 0)
(4.99182e-16 -4.55363e-17 0)
(9.03657e-12 3.23091e-16 0)
(2.37564e-08 3.71663e-15 0)
(7.14151e-06 1.93205e-15 0)
(0.000348437 -1.4077e-15 0)
(0.00415118 2.07202e-14 0)
(0.0186357 -3.70403e-14 0)
(0.0462021 2.93749e-14 0)
(0.0824686 -5.90777e-15 0)
(0.123111 1.21784e-15 0)
(0.165943 4.02799e-15 0)
(0.210027 -6.131e-15 0)
(0.254928 1.04072e-14 0)
(0.300415 -5.38688e-15 0)
(0.346354 2.60963e-14 0)
(0.392665 -7.87625e-15 0)
(0.439304 5.7197e-15 0)
(0.486253 2.53725e-14 0)
(0.533511 -6.40351e-15 0)
(0.581088 2.64243e-15 0)
(0.628991 1.08948e-14 0)
(0.67721 2.1731e-14 0)
(0.725685 1.00227e-14 0)
(0.774225 5.3482e-15 0)
(0.822368 1.31229e-14 0)
(0.868582 7.11451e-15 0)
(0.908788 7.3571e-15 0)
(0.933174 5.06947e-15 0)
(0.93633 6.9096e-15 0)
(0.925066 6.2852e-15 0)
(0.926443 5.57329e-15 0)
(0.927501 1.08207e-14 0)
(0.927745 5.08167e-15 0)
(0.927863 -8.82403e-16 0)
(0.927992 1.98984e-15 0)
(0.928258 -6.14921e-15 0)
(0.928414 -3.22412e-15 0)
(0.928249 7.77481e-16 0)
(0.928098 4.33236e-15 0)
(0.928124 6.93401e-15 0)
(0.928293 5.4331e-16 0)
(0.928669 5.90385e-15 0)
(0.929172 1.98542e-15 0)
(0.928602 1.86924e-15 0)
(0.926641 6.82716e-15 0)
(0.930126 -1.36263e-15 0)
(0.931072 3.05988e-15 0)
(0.928075 -6.6818e-17 0)
(0.925975 5.00366e-15 0)
(0.925197 -1.14969e-15 0)
(0.92503 8.09819e-16 0)
(0.925974 2.51513e-15 0)
(0.926174 -1.46587e-16 0)
(0.923262 1.00196e-15 0)
(0.901539 1.25195e-15 0)
(0.779539 -3.44416e-15 0)
(0.389391 2.04628e-15 0)
(0.0382603 8.08703e-15 0)
(0.000332139 -7.42454e-16 0)
(1.87787e-07 1.68376e-15 0)
(6.03256e-12 4.99815e-16 0)
(1.81479e-16 2.67797e-16 0)
(1.25688e-16 4.40184e-16 0)
(-5.77929e-17 2.33103e-16 0)
(-4.26706e-16 6.28835e-17 0)
(-6.71492e-16 8.89043e-17 0)
(-5.08019e-16 -8.78201e-17 0)
(-1.72594e-16 4.33679e-18 0)
(8.0478e-17 -2.56955e-16 0)
(3.47897e-16 -1.94071e-16 0)
(3.4857e-16 1.11672e-16 0)
(1.20703e-16 4.15248e-16 0)
(-2.798e-16 3.44775e-16 0)
(-5.54405e-16 -4.87889e-17 0)
(-6.65665e-16 -3.08997e-16 0)
(-5.63426e-16 -2.47197e-16 0)
(-6.64614e-16 -3.50196e-16 0)
(6.50519e-18 0 0)
(1.98953e-16 -1.19262e-16 0)
(-5.23702e-17 -4.61868e-16 0)
(-2.04708e-16 -8.32664e-16 0)
(-3.82371e-16 -6.41845e-16 0)
(-5.41259e-17 -3.14417e-16 0)
(1.76449e-16 0 0)
(1.31833e-16 0 0)
(-4.68374e-17 0 0)
(1.81703e-16 0 0)
(4.20368e-16 7.80623e-17 0)
(2.40843e-17 2.34187e-16 0)
(-2.92634e-16 0 0)
(-3.474e-17 -5.20415e-17 0)
(2.18926e-16 0 0)
(7.36478e-18 -9.32411e-17 0)
(-2.57929e-16 0 0)
(-2.42276e-16 0 0)
(-5.00321e-17 -1.17093e-16 0)
(1.9014e-17 0 0)
(2.22638e-16 0 0)
(-1.83028e-17 -9.32411e-17 0)
(-3.31614e-16 -4.55363e-17 0)
(5.97679e-16 0 0)
(9.03669e-12 1.0842e-17 0)
(2.37564e-08 9.08558e-16 0)
(7.14151e-06 5.1825e-16 0)
(0.000348437 -2.2276e-15 0)
(0.00415118 1.02099e-14 0)
(0.0186357 -1.53898e-14 0)
(0.0462021 1.706e-14 0)
(0.0824686 3.31505e-16 0)
(0.123111 8.35986e-16 0)
(0.165943 4.17551e-15 0)
(0.210027 -7.10021e-15 0)
(0.254928 1.11573e-14 0)
(0.300415 -3.30418e-15 0)
(0.346354 2.04307e-14 0)
(0.392665 -6.23129e-15 0)
(0.439304 4.60319e-15 0)
(0.486253 1.97658e-14 0)
(0.533511 -2.84079e-15 0)
(0.581088 2.72973e-15 0)
(0.628991 7.99538e-15 0)
(0.67721 1.83081e-14 0)
(0.725685 9.06912e-15 0)
(0.774225 8.00316e-15 0)
(0.822368 1.02576e-14 0)
(0.868582 1.04282e-14 0)
(0.908788 3.37715e-15 0)
(0.933174 1.08992e-14 0)
(0.93633 1.07564e-14 0)
(0.925066 6.95109e-15 0)
(0.926443 6.52429e-15 0)
(0.927501 1.11106e-14 0)
(0.927745 3.11349e-15 0)
(0.927863 5.42528e-16 0)
(0.927992 2.7927e-16 0)
(0.928258 -3.95118e-15 0)
(0.928414 -1.66465e-15 0)
(0.928249 -3.10416e-16 0)
(0.928098 2.74034e-15 0)
(0.928124 3.53243e-15 0)
(0.928293 1.10017e-15 0)
(0.928669 2.95584e-15 0)
(0.929172 1.73e-15 0)
(0.928602 2.54451e-15 0)
(0.926641 2.69684e-15 0)
(0.930126 1.1824e-15 0)
(0.931072 1.56093e-15 0)
(0.928075 1.64681e-15 0)
(0.925975 2.21304e-15 0)
(0.925197 -1.477e-16 0)
(0.92503 -2.86393e-16 0)
(0.925974 4.5879e-16 0)
(0.926174 1.18398e-16 0)
(0.923262 7.16715e-16 0)
(0.901539 7.93096e-16 0)
(0.779539 -9.17904e-16 0)
(0.389391 8.42724e-16 0)
(0.0382603 2.98606e-15 0)
(0.000332139 -1.75588e-16 0)
(1.87787e-07 8.56516e-17 0)
(6.03241e-12 -2.27682e-17 0)
(3.50849e-16 1.2902e-16 0)
(1.95032e-16 2.30934e-16 0)
(-2.12796e-17 4.66205e-17 0)
(-4.30764e-16 0 0)
(-6.93137e-16 0 0)
(-5.10797e-16 0 0)
(-3.16677e-16 -1.6263e-17 0)
(5.25854e-17 -9.97462e-17 0)
(3.97064e-16 -9.8662e-17 0)
(4.56207e-16 0 0)
(1.73645e-16 0 0)
(-3.15781e-16 4.98731e-17 0)
(-5.97281e-16 5.85467e-17 0)
(-5.87034e-16 -8.89043e-17 0)
(-4.85333e-16 -3.79469e-17 0)
(-4.58616e-16 -1.37693e-16 0)
(3.10081e-16 1.99492e-16 0)
(2.95253e-16 0 0)
(-7.04795e-17 -1.90819e-16 0)
(-1.13053e-16 -5.07405e-16 0)
(-3.90814e-17 -2.79723e-16 0)
(9.13866e-17 0 0)
(3.93329e-16 1.69135e-16 0)
(1.78467e-16 3.75133e-16 0)
(-2.6586e-17 2.38524e-16 0)
(2.34054e-16 5.85467e-17 0)
(4.34682e-16 0 0)
(6.70585e-17 0 0)
(-3.00182e-16 0 0)
(-1.02649e-17 -7.37255e-17 0)
(2.28952e-16 0 0)
(-7.87876e-18 9.32411e-17 0)
(-3.07731e-16 9.10727e-17 0)
(-3.73053e-16 0 0)
(-9.66185e-17 0 0)
(5.07522e-17 0 0)
(2.23803e-16 0 0)
(-5.12728e-17 9.32411e-17 0)
(-3.64148e-16 0 0)
(5.56344e-16 0 0)
(9.03659e-12 -1.23599e-16 0)
(2.37564e-08 8.45675e-17 0)
(7.14151e-06 -6.36862e-15 0)
(0.000348437 2.11698e-15 0)
(0.00415118 -5.59458e-15 0)
(0.0186357 2.73165e-15 0)
(0.0462021 7.97801e-15 0)
(0.0824686 -6.56031e-16 0)
(0.123111 6.30001e-15 0)
(0.165943 3.97799e-15 0)
(0.210027 -8.1175e-15 0)
(0.254928 1.18507e-14 0)
(0.300415 -8.42931e-16 0)
(0.346354 1.35276e-14 0)
(0.392665 -4.04055e-15 0)
(0.439304 5.37996e-15 0)
(0.486253 1.41208e-14 0)
(0.533511 7.1846e-16 0)
(0.581088 3.51718e-15 0)
(0.628991 5.28523e-15 0)
(0.67721 1.39392e-14 0)
(0.725685 5.13705e-15 0)
(0.774225 7.97364e-15 0)
(0.822368 6.89151e-15 0)
(0.868582 1.32848e-14 0)
(0.908788 1.73101e-15 0)
(0.933174 1.57502e-14 0)
(0.93633 1.02497e-14 0)
(0.925066 7.0856e-15 0)
(0.926443 7.32061e-15 0)
(0.927501 7.97371e-15 0)
(0.927745 -4.13968e-16 0)
(0.927863 1.92871e-15 0)
(0.927992 1.77919e-16 0)
(0.928258 -2.59235e-15 0)
(0.928414 -8.47463e-16 0)
(0.928249 -1.58604e-15 0)
(0.928098 1.7369e-15 0)
(0.928124 1.25994e-15 0)
(0.928293 9.66773e-16 0)
(0.928669 -1.13112e-15 0)
(0.929172 2.21332e-16 0)
(0.928602 1.83112e-15 0)
(0.926641 1.83352e-15 0)
(0.930126 2.91768e-15 0)
(0.931072 2.53069e-16 0)
(0.928075 -1.19964e-15 0)
(0.925975 -6.48623e-16 0)
(0.925197 -7.60629e-16 0)
(0.92503 -1.26486e-15 0)
(0.925974 -1.38253e-15 0)
(0.926174 -4.51038e-17 0)
(0.923262 1.56477e-16 0)
(0.901539 8.9686e-17 0)
(0.779539 1.44193e-15 0)
(0.389391 -1.48763e-16 0)
(0.0382603 -1.60481e-15 0)
(0.000332139 -2.87227e-16 0)
(1.87787e-07 -6.52687e-16 0)
(6.0327e-12 -1.20346e-16 0)
(3.5397e-16 -7.58939e-18 0)
(1.40821e-16 4.66205e-17 0)
(-5.57802e-18 0 0)
(-3.60957e-16 0 0)
(-6.2364e-16 7.58939e-17 0)
(-6.02013e-16 2.01661e-16 0)
(-3.88627e-16 -9.75778e-18 0)
(7.08642e-17 -1.0842e-18 0)
(4.62189e-16 0 0)
(5.58027e-16 -1.6263e-16 0)
(3.56139e-16 -3.00323e-16 0)
(-3.43844e-17 -6.72203e-17 0)
(-5.11543e-16 2.27682e-16 0)
(-7.68783e-16 1.72388e-16 0)
(-6.58408e-16 2.8406e-16 0)
(-5.69204e-16 2.15755e-16 0)
(6.78708e-16 4.83552e-16 0)
(4.23046e-16 1.84314e-16 0)
(-9.31292e-17 1.40946e-16 0)
(-2.89551e-16 -1.8865e-16 0)
(-9.62031e-17 2.1684e-18 0)
(2.97202e-16 5.85467e-17 0)
(4.56178e-16 4.7271e-16 0)
(1.82013e-16 7.39423e-16 0)
(-3.81725e-18 5.59446e-16 0)
(2.62953e-16 2.90565e-16 0)
(3.66459e-16 1.45283e-16 0)
(7.8947e-17 -1.45283e-16 0)
(-2.24365e-16 -7.80623e-17 0)
(-8.19006e-18 -2.64544e-16 0)
(2.34061e-16 -5.63783e-17 0)
(-4.41505e-17 4.11995e-17 0)
(-3.41478e-16 3.40438e-16 0)
(-4.7512e-16 1.58293e-16 0)
(-1.77245e-16 0 0)
(6.6298e-17 0 0)
(2.22652e-16 0 0)
(-1.29872e-17 -3.03576e-17 0)
(-4.21547e-16 0 0)
(5.16838e-16 0 0)
(9.03593e-12 -1.09287e-15 0)
(2.37564e-08 -1.50053e-15 0)
(7.14151e-06 -9.13117e-15 0)
(0.000348437 7.22289e-15 0)
(0.00415118 -1.13132e-14 0)
(0.0186357 1.03516e-14 0)
(0.0462021 9.37515e-15 0)
(0.0824686 -7.74326e-15 0)
(0.123111 1.31843e-14 0)
(0.165943 3.32916e-15 0)
(0.210027 -7.38864e-15 0)
(0.254928 1.25616e-14 0)
(0.300415 1.23836e-15 0)
(0.346354 7.03506e-15 0)
(0.392665 -2.25341e-15 0)
(0.439304 7.26686e-15 0)
(0.486253 7.96794e-15 0)
(0.533511 3.2148e-15 0)
(0.581088 5.05663e-15 0)
(0.628991 3.16581e-15 0)
(0.67721 8.54061e-15 0)
(0.725685 -1.95091e-16 0)
(0.774225 7.70902e-15 0)
(0.822368 5.91159e-15 0)
(0.868582 1.41846e-14 0)
(0.908788 2.47109e-15 0)
(0.933174 1.75458e-14 0)
(0.93633 7.47018e-15 0)
(0.925066 4.60762e-15 0)
(0.926443 5.71527e-15 0)
(0.927501 3.18078e-15 0)
(0.927745 -3.77591e-15 0)
(0.927863 3.45401e-15 0)
(0.927992 -1.39794e-16 0)
(0.928258 -1.2771e-15 0)
(0.928414 5.27473e-16 0)
(0.928249 -2.47788e-15 0)
(0.928098 9.70056e-16 0)
(0.928124 -1.30411e-15 0)
(0.928293 4.16862e-18 0)
(0.928669 -2.9495e-15 0)
(0.929172 1.84785e-17 0)
(0.928602 6.52125e-16 0)
(0.926641 8.49595e-16 0)
(0.930126 4.47374e-15 0)
(0.931072 -2.24278e-15 0)
(0.928075 -4.3149e-15 0)
(0.925975 -2.52139e-15 0)
(0.925197 -1.14249e-16 0)
(0.92503 -1.78932e-16 0)
(0.925974 -2.17694e-15 0)
(0.926174 2.81899e-16 0)
(0.923262 -1.02762e-15 0)
(0.901539 -7.07581e-16 0)
(0.779539 1.81277e-15 0)
(0.389391 -1.73055e-15 0)
(0.0382603 -6.7866e-15 0)
(0.000332139 -2.20027e-16 0)
(1.87787e-07 -2.45462e-15 0)
(6.03289e-12 -3.18754e-16 0)
(4.22584e-16 -1.8865e-16 0)
(1.90516e-16 0 0)
(4.61381e-17 0 0)
(-1.31012e-16 -6.72203e-17 0)
(-4.15303e-16 1.85398e-16 0)
(-6.40325e-16 4.09827e-16 0)
(-3.99786e-16 1.98408e-16 0)
(3.85646e-17 4.87889e-17 0)
(4.2286e-16 9.10727e-17 0)
(5.76852e-16 -3.55617e-16 0)
(3.9337e-16 -5.38847e-16 0)
(1.25697e-16 -2.72134e-16 0)
(-3.92376e-16 7.58939e-17 0)
(-7.38201e-16 3.72964e-16 0)
(-6.95034e-16 5.29089e-16 0)
(-7.96886e-16 4.45605e-16 0)
(9.08558e-16 2.45029e-16 0)
(4.95884e-16 1.04083e-16 0)
(-9.15911e-17 1.34441e-16 0)
(-3.25443e-16 2.40692e-16 0)
(1.3781e-17 1.01915e-16 0)
(4.10994e-16 2.66713e-16 0)
(6.39122e-16 2.90565e-16 0)
(2.63443e-16 4.09827e-16 0)
(-1.88689e-16 3.75133e-16 0)
(2.91319e-16 2.60208e-16 0)
(-3.09554e-18 -3.68627e-17 0)
(-1.45162e-16 -2.53702e-16 0)
(-2.10702e-16 -1.73472e-17 0)
(-2.54598e-17 1.04083e-16 0)
(2.52732e-16 2.1684e-17 0)
(1.49932e-16 -1.51788e-16 0)
(-1.80408e-16 1.25767e-16 0)
(-5.49605e-16 2.34187e-16 0)
(-2.40798e-16 8.89043e-17 0)
(7.35932e-17 1.92987e-16 0)
(-1.54479e-16 3.25259e-17 0)
(-9.15825e-17 -2.27682e-16 0)
(1.27503e-16 3.03576e-17 0)
(5.49485e-16 2.77555e-16 0)
(9.03416e-12 -4.51026e-16 0)
(2.37564e-08 -3.74916e-15 0)
(7.14151e-06 -4.6816e-15 0)
(0.000348437 1.41421e-15 0)
(0.00415118 -8.16229e-15 0)
(0.0186357 5.01169e-15 0)
(0.0462021 1.2687e-14 0)
(0.0824686 -1.40698e-14 0)
(0.123111 1.85097e-14 0)
(0.165943 1.01137e-15 0)
(0.210027 -5.93872e-15 0)
(0.254928 1.19642e-14 0)
(0.300415 2.62589e-15 0)
(0.346354 2.06154e-15 0)
(0.392665 -2.53012e-15 0)
(0.439304 9.24786e-15 0)
(0.486253 6.36103e-16 0)
(0.533511 5.34235e-15 0)
(0.581088 6.51152e-15 0)
(0.628991 1.96436e-15 0)
(0.67721 4.36491e-15 0)
(0.725685 -1.20915e-15 0)
(0.774225 4.90643e-15 0)
(0.822368 4.97294e-15 0)
(0.868582 1.26214e-14 0)
(0.908788 -3.05266e-15 0)
(0.933174 1.68236e-14 0)
(0.93633 9.36822e-15 0)
(0.925066 5.64056e-15 0)
(0.926443 2.95372e-15 0)
(0.927501 1.32482e-15 0)
(0.927745 -3.29713e-15 0)
(0.927863 2.41311e-15 0)
(0.927992 -2.2386e-15 0)
(0.928258 -6.46181e-16 0)
(0.928414 6.80775e-16 0)
(0.928249 -6.63117e-16 0)
(0.928098 -3.16006e-16 0)
(0.928124 -2.76298e-15 0)
(0.928293 -1.269e-15 0)
(0.928669 -3.45496e-15 0)
(0.929172 -1.88851e-15 0)
(0.928602 9.53908e-16 0)
(0.926641 -3.14492e-15 0)
(0.930126 2.91464e-15 0)
(0.931072 -9.36457e-16 0)
(0.928075 -5.53562e-15 0)
(0.925975 -4.34063e-15 0)
(0.925197 -6.15502e-16 0)
(0.92503 3.33697e-16 0)
(0.925974 -1.93164e-15 0)
(0.926174 5.18694e-16 0)
(0.923262 -9.77339e-16 0)
(0.901539 -1.40265e-16 0)
(0.779539 -7.31329e-17 0)
(0.389391 -1.59524e-15 0)
(0.0382603 -5.07683e-15 0)
(0.000332139 9.35384e-16 0)
(1.87787e-07 -1.62521e-15 0)
(6.03302e-12 -7.19908e-16 0)
(5.3848e-16 -1.27935e-16 0)
(2.02741e-16 -6.50519e-18 0)
(4.80932e-17 -9.43252e-17 0)
(3.77151e-17 -2.39608e-16 0)
(-1.76598e-16 -8.67359e-18 0)
(-4.04222e-16 2.5045e-16 0)
(-2.9467e-16 3.83806e-16 0)
(-9.04473e-17 1.81061e-16 0)
(2.08168e-16 7.80623e-17 0)
(3.17408e-16 -1.51788e-16 0)
(5.11892e-16 -3.1767e-16 0)
(2.53574e-16 -1.70219e-16 0)
(-2.34228e-16 -1.05167e-16 0)
(-5.70242e-16 2.04913e-16 0)
(-7.66261e-16 3.28512e-16 0)
(-9.61684e-16 3.0466e-16 0)
(6.91718e-16 -2.1684e-18 0)
(3.70218e-16 2.55871e-16 0)
(-2.49984e-17 3.14417e-16 0)
(-2.06707e-17 5.42099e-16 0)
(1.88655e-16 3.68627e-16 0)
(4.02799e-16 5.6812e-16 0)
(4.31114e-16 3.53449e-16 0)
(1.69887e-16 9.32411e-17 0)
(4.30988e-17 1.97324e-16 0)
(-7.72223e-17 -1.10588e-16 0)
(-3.25084e-16 -3.62122e-16 0)
(-7.03731e-17 -1.0842e-16 0)
(-2.15784e-16 2.1684e-16 0)
(1.64022e-17 4.74879e-16 0)
(2.34319e-16 2.60208e-16 0)
(8.79207e-17 3.03576e-17 0)
(-9.06409e-17 1.32272e-16 0)
(-3.67651e-16 4.11995e-16 0)
(-1.09707e-16 2.9707e-16 0)
(8.93187e-17 4.66205e-16 0)
(-1.46141e-16 2.32018e-16 0)
(-1.06841e-16 6.28835e-17 0)
(1.35032e-16 2.53702e-16 0)
(7.41739e-16 5.85467e-16 0)
(9.03425e-12 7.93633e-16 0)
(2.37564e-08 -6.72203e-16 0)
(7.14151e-06 -5.27791e-15 0)
(0.000348437 2.87614e-15 0)
(0.00415118 2.17603e-16 0)
(0.0186357 -1.05741e-15 0)
(0.0462021 1.26194e-14 0)
(0.0824686 -1.76477e-14 0)
(0.123111 1.86182e-14 0)
(0.165943 8.03848e-16 0)
(0.210027 -3.10642e-15 0)
(0.254928 8.59334e-15 0)
(0.300415 3.12968e-15 0)
(0.346354 -4.20813e-16 0)
(0.392665 -1.97671e-15 0)
(0.439304 1.13182e-14 0)
(0.486253 -6.02799e-15 0)
(0.533511 6.69577e-15 0)
(0.581088 7.02527e-15 0)
(0.628991 -1.60098e-15 0)
(0.67721 1.1821e-15 0)
(0.725685 -2.00412e-15 0)
(0.774225 2.03168e-15 0)
(0.822368 1.98276e-15 0)
(0.868582 1.06214e-14 0)
(0.908788 -5.60113e-15 0)
(0.933174 1.79159e-14 0)
(0.93633 6.27361e-15 0)
(0.925066 3.66224e-15 0)
(0.926443 -3.37332e-16 0)
(0.927501 9.02708e-16 0)
(0.927745 -3.25487e-15 0)
(0.927863 -2.06085e-15 0)
(0.927992 -3.04401e-15 0)
(0.928258 7.44761e-16 0)
(0.928414 6.85237e-17 0)
(0.928249 1.48513e-15 0)
(0.928098 -8.4333e-16 0)
(0.928124 -1.46684e-15 0)
(0.928293 -1.64e-15 0)
(0.928669 -3.94996e-15 0)
(0.929172 -3.75443e-15 0)
(0.928602 9.8749e-16 0)
(0.926641 -3.27288e-15 0)
(0.930126 -1.76015e-15 0)
(0.931072 2.12496e-15 0)
(0.928075 -2.03744e-15 0)
(0.925975 -5.71406e-16 0)
(0.925197 -4.58024e-16 0)
(0.92503 -5.18799e-16 0)
(0.925974 6.95883e-16 0)
(0.926174 1.08095e-15 0)
(0.923262 1.03634e-15 0)
(0.901539 3.44144e-17 0)
(0.779539 -9.15025e-16 0)
(0.389391 2.59543e-16 0)
(0.0382603 1.72866e-15 0)
(0.000332139 -2.98066e-16 0)
(1.87787e-07 1.91144e-15 0)
(6.03393e-12 -5.74625e-17 0)
(4.17886e-16 -2.7105e-17 0)
(1.11168e-16 -5.09573e-17 0)
(-5.36148e-17 -2.07082e-16 0)
(5.59283e-17 -8.13149e-17 0)
(3.80197e-17 0 0)
(-1.27794e-16 -1.95156e-17 0)
(-2.60903e-16 1.85398e-16 0)
(-1.28413e-16 8.02307e-17 0)
(6.53133e-17 2.41776e-16 0)
(2.10889e-16 2.81892e-16 0)
(3.40914e-16 1.0842e-16 0)
(9.36689e-17 -1.50704e-16 0)
(-2.93708e-16 -2.7105e-16 0)
(-5.59105e-16 -2.1684e-18 0)
(-6.91628e-16 8.23991e-17 0)
(-8.74948e-16 1.27935e-16 0)
(8.93379e-16 -2.21176e-16 0)
(4.91314e-16 -9.97462e-17 0)
(-5.29675e-18 -3.90311e-17 0)
(-7.58946e-17 2.4286e-16 0)
(2.73146e-16 1.86482e-16 0)
(6.16749e-16 2.88397e-16 0)
(2.7856e-16 -4.77047e-17 0)
(6.0948e-17 -3.96817e-16 0)
(-2.06037e-16 -2.51534e-16 0)
(-4.35169e-16 -4.77047e-16 0)
(-9.87599e-17 -1.38777e-16 0)
(1.85409e-16 1.51788e-16 0)
(-3.59525e-17 3.46943e-17 0)
(-2.10601e-16 2.47197e-16 0)
(-4.02301e-17 -4.33679e-18 0)
(2.71755e-16 -7.80623e-17 0)
(1.54549e-16 -1.6263e-16 0)
(-4.95693e-17 2.81892e-17 0)
(1.1665e-17 4.33679e-18 0)
(8.50221e-17 4.33679e-17 0)
(-9.78317e-17 -1.34441e-16 0)
(-1.56389e-16 4.33679e-18 0)
(8.38324e-17 8.89043e-17 0)
(8.3391e-16 2.51534e-16 0)
(9.03541e-12 9.32411e-16 0)
(2.37564e-08 2.0036e-15 0)
(7.14151e-06 -1.99927e-15 0)