/*--------------------------------*- C++ -*----------------------------------*\
| =========                 |                                                 |
| \\      /  F ield         | OpenFOAM: The Open Source CFD Toolbox           |
|  \\    /   O peration     | Version:  4.1                                   |
|   \\  /    A nd           | Web:      www.OpenFOAM.org                      |
|    \\/     M anipulation  |                                                 |
\*---------------------------------------------------------------------------*/
FoamFile
{
    version     2.0;
    format      ascii;
    class       volVectorField;
    location    "0.35";
    object      U;
}
// * * * * * * * * * * * * * * * * * * * * * * * * * * * * * * * * * * * * * //

dimensions      [0 1 -1 0 0 0 0];

internalField   nonuniform List<vector> 
10000
(
(0 0 0)
(1.68511e-16 0 0)
(3.04347e-16 0 0)
(1.00421e-16 1.56125e-16 0)
(-1.22887e-16 0 0)
(-2.93225e-16 0 0)
(-2.64855e-16 0 0)
(-4.241e-17 0 0)
(-2.6509e-21 0 0)
(2.40748e-16 1.49619e-16 0)
(5.04279e-16 0 0)
(1.69924e-16 -1.56125e-16 0)
(-2.10966e-16 0 0)
(5.00747e-17 0 0)
(1.62345e-16 0 0)
(-4.907e-17 1.32272e-16 0)
(-2.59511e-16 0 0)
(-1.47555e-16 0 0)
(-4.33974e-17 0 0)
(-2.03773e-16 0 0)
(-6.39968e-18 6.50519e-18 0)
(1.13248e-18 2.05998e-16 0)
(3.50539e-15 -1.95156e-17 0)
(5.46584e-11 3.07912e-16 0)
(8.81647e-08 8.86874e-16 0)
(1.74642e-05 -4.44528e-16 0)
(0.000610633 -1.4718e-14 0)
(0.0057216 8.71789e-15 0)
(0.022066 -7.79576e-15 0)
(0.0502221 1.01043e-15 0)
(0.0856066 1.46103e-14 0)
(0.124554 1.24696e-14 0)
(0.165319 1.24945e-14 0)
(0.207153 8.1993e-15 0)
(0.2497 5.57503e-15 0)
(0.292764 2.38075e-14 0)
(0.336229 -2.30511e-14 0)
(0.380022 1.38123e-14 0)
(0.424102 -8.84028e-15 0)
(0.468448 9.61236e-15 0)
(0.513056 9.98347e-15 0)
(0.55793 6.51039e-14 0)
(0.603079 5.83584e-14 0)
(0.648504 5.10821e-14 0)
(0.694185 1.23227e-14 0)
(0.740053 2.91982e-14 0)
(0.785908 -1.54002e-14 0)
(0.831287 4.14947e-14 0)
(0.874643 7.45493e-14 0)
(0.91181 1.13006e-14 0)
(0.933419 -3.42342e-14 0)
(0.935577 -1.20314e-14 0)
(0.925179 4.27182e-15 0)
(0.92652 9.85978e-15 0)
(0.927536 1.17218e-14 0)
(0.92775 1.3834e-14 0)
(0.927966 1.13671e-14 0)
(0.928039 7.95751e-15 0)
(0.928315 7.3709e-15 0)
(0.928434 7.0477e-15 0)
(0.928237 5.63268e-15 0)
(0.92808 7.67941e-15 0)
(0.928094 5.81929e-15 0)
(0.928189 7.28472e-15 0)
(0.928375 5.55409e-15 0)
(0.928727 3.79832e-15 0)
(0.929305 -3.34849e-15 0)
(0.9292 -2.42361e-15 0)
(0.925656 -1.01693e-14 0)
(0.927217 -1.09288e-14 0)
(0.93074 -5.86893e-15 0)
(0.929932 -7.67462e-15 0)
(0.928132 -7.60402e-15 0)
(0.926332 -3.42935e-15 0)
(0.925449 -2.40097e-15 0)
(0.925234 -3.33866e-15 0)
(0.925752 -2.56119e-15 0)
(0.925069 -4.4303e-15 0)
(0.920026 -5.12755e-15 0)
(0.885703 -4.65248e-15 0)
(0.712205 -4.20357e-15 0)
(0.270808 -1.56359e-15 0)
(0.015374 8.91269e-16 0)
(7.15233e-05 1.62619e-16 0)
(2.00419e-08 2.69965e-16 0)
(5.81411e-13 0 0)
(-2.54987e-16 0 0)
(-1.32233e-16 0 0)
(-1.04181e-16 0 0)
(-2.13826e-16 0 0)
(-2.86313e-16 -6.50519e-18 0)
(-4.36073e-16 0 0)
(-2.49788e-16 1.18178e-16 0)
(4.09515e-17 0 0)
(2.54748e-16 0 0)
(1.57486e-17 0 0)
(-2.40958e-16 1.82145e-16 0)
(-3.1872e-16 1.48535e-16 0)
(-2.45962e-16 7.69781e-17 0)
(-1.14925e-16 1.53956e-16 0)
(0 0 0)
(2.10388e-16 0 0)
(3.07921e-16 1.38777e-16 0)
(1.02327e-16 3.40438e-16 0)
(-1.20261e-16 1.25767e-16 0)
(-3.21184e-16 2.58039e-16 0)
(-3.11446e-16 4.98731e-17 0)
(-5.03436e-17 0 0)
(-9.74131e-20 0 0)
(2.44391e-16 0 0)
(5.44571e-16 0 0)
(1.83675e-16 0 0)
(-1.79686e-16 0 0)
(6.98605e-17 0 0)
(1.65134e-16 1.30104e-16 0)
(-4.8614e-17 3.16586e-16 0)
(-2.62379e-16 1.27935e-16 0)
(-1.60525e-16 0 0)
(-6.45115e-17 0 0)
(-2.20039e-16 0 0)
(1.89242e-19 0 0)
(1.8877e-16 2.38524e-17 0)
(3.27265e-15 6.50519e-18 0)
(5.46592e-11 1.27935e-15 0)
(8.81647e-08 3.91396e-15 0)
(1.74642e-05 3.84029e-15 0)
(0.000610633 -1.24986e-14 0)
(0.0057216 2.05604e-14 0)
(0.022066 -1.08127e-14 0)
(0.0502221 -6.18367e-15 0)
(0.0856066 2.42287e-14 0)
(0.124554 -7.43425e-15 0)
(0.165319 1.36615e-14 0)
(0.207153 8.86152e-15 0)
(0.2497 6.77237e-15 0)
(0.292764 1.2625e-14 0)
(0.336229 -7.0599e-15 0)
(0.380022 2.49222e-14 0)
(0.424102 -7.15088e-15 0)
(0.468448 1.04904e-14 0)
(0.513056 2.47666e-14 0)
(0.55793 2.60405e-14 0)
(0.603079 1.96938e-14 0)
(0.648504 2.96597e-14 0)
(0.694185 2.56222e-14 0)
(0.740053 3.0276e-14 0)
(0.785908 4.87721e-15 0)
(0.831287 2.89102e-14 0)
(0.874643 2.5143e-14 0)
(0.91181 3.58088e-14 0)
(0.933419 -1.52118e-14 0)
(0.935577 -5.03594e-15 0)
(0.925179 4.20551e-15 0)
(0.92652 1.01254e-14 0)
(0.927536 8.89843e-15 0)
(0.92775 1.10253e-14 0)
(0.927966 6.98551e-15 0)
(0.928039 4.36524e-15 0)
(0.928315 5.91776e-15 0)
(0.928434 6.47924e-15 0)
(0.928237 1.05506e-14 0)
(0.92808 1.20984e-14 0)
(0.928094 9.73474e-15 0)
(0.928189 7.11344e-15 0)
(0.928375 7.26298e-15 0)
(0.928727 3.07622e-15 0)
(0.929305 2.4024e-15 0)
(0.9292 4.00016e-15 0)
(0.925656 -1.03724e-14 0)
(0.927217 -6.28285e-16 0)
(0.93074 -8.35505e-15 0)
(0.929932 -4.23294e-15 0)
(0.928132 -4.08538e-15 0)
(0.926332 -1.19333e-15 0)
(0.925449 4.46071e-16 0)
(0.925234 3.122e-15 0)
(0.925752 2.99027e-15 0)
(0.925069 1.98536e-15 0)
(0.920026 1.36012e-15 0)
(0.885703 -2.5453e-15 0)
(0.712205 -3.26234e-15 0)
(0.270808 -1.61318e-15 0)
(0.015374 1.87455e-15 0)
(7.15233e-05 1.13833e-15 0)
(2.00419e-08 1.43006e-15 0)
(5.81415e-13 -4.55363e-17 0)
(-2.43112e-16 0 0)
(-1.43926e-16 3.14417e-17 0)
(-1.58144e-16 0 0)
(-2.60729e-16 4.44521e-17 0)
(-1.92136e-16 4.11995e-17 0)
(-3.06077e-16 2.00577e-16 0)
(-1.85104e-16 3.20923e-16 0)
(9.22539e-18 1.2902e-16 0)
(2.2104e-16 0 0)
(-1.3229e-17 5.74625e-17 0)
(-2.68027e-16 3.07912e-16 0)
(-3.75813e-16 3.50196e-16 0)
(-3.45962e-16 2.66713e-16 0)
(-3.22007e-16 3.5887e-16 0)
(0 0 0)
(2.57891e-16 0 0)
(5.23292e-16 0 0)
(1.14711e-16 1.06251e-16 0)
(-3.50692e-16 3.44775e-16 0)
(-3.24651e-16 5.83299e-16 0)
(-3.4023e-16 2.62376e-16 0)
(-4.10416e-17 0 0)
(-1.64236e-18 0 0)
(2.51485e-16 0 0)
(5.77852e-16 0 0)
(2.10574e-16 2.1684e-18 0)
(-1.48124e-16 6.93887e-17 0)
(8.5679e-17 2.92734e-16 0)
(3.30154e-16 1.66967e-16 0)
(-3.6784e-17 7.80623e-17 0)
(-4.06303e-16 0 0)
(-1.67862e-16 0 0)
(-9.07252e-17 1.01915e-16 0)
(-2.13686e-16 0 0)
(5.26718e-19 0 0)
(1.9664e-16 3.25259e-17 0)
(3.49462e-15 1.73472e-16 0)
(5.46608e-11 1.68701e-15 0)
(8.81647e-08 9.75562e-15 0)
(1.74642e-05 7.28158e-15 0)
(0.000610633 -8.32444e-15 0)
(0.0057216 2.75002e-14 0)
(0.022066 -5.92774e-15 0)
(0.0502221 -1.78087e-14 0)
(0.0856066 3.42962e-14 0)
(0.124554 -1.1594e-14 0)
(0.165319 1.21909e-14 0)
(0.207153 8.06971e-15 0)
(0.2497 6.9809e-15 0)
(0.292764 1.0945e-14 0)
(0.336229 -2.93932e-15 0)
(0.380022 2.69051e-14 0)
(0.424102 -5.79495e-15 0)
(0.468448 8.21343e-15 0)
(0.513056 3.23998e-14 0)
(0.55793 1.40835e-14 0)
(0.603079 8.0164e-15 0)
(0.648504 1.91617e-14 0)
(0.694185 2.81242e-14 0)
(0.740053 2.66521e-14 0)
(0.785908 9.1196e-15 0)
(0.831287 2.30081e-14 0)
(0.874643 1.12771e-14 0)
(0.91181 3.18962e-14 0)
(0.933419 -1.20979e-14 0)
(0.935577 -2.14608e-15 0)
(0.925179 5.70317e-15 0)
(0.92652 1.1896e-14 0)
(0.927536 8.67203e-15 0)
(0.92775 9.53843e-15 0)
(0.927966 2.85998e-15 0)
(0.928039 2.44282e-15 0)
(0.928315 3.08617e-15 0)
(0.928434 4.51142e-15 0)
(0.928237 9.46707e-15 0)
(0.92808 1.09405e-14 0)
(0.928094 9.41555e-15 0)
(0.928189 7.94185e-15 0)
(0.928375 7.27066e-15 0)
(0.928727 4.54032e-15 0)
(0.929305 1.86945e-15 0)
(0.9292 6.80834e-15 0)
(0.925656 -1.00448e-14 0)
(0.927217 6.74617e-15 0)
(0.93074 -5.169e-15 0)
(0.929932 6.18854e-16 0)
(0.928132 3.51966e-16 0)
(0.926332 1.48897e-15 0)
(0.925449 4.29164e-15 0)
(0.925234 6.20242e-15 0)
(0.925752 4.78813e-15 0)
(0.925069 4.00556e-15 0)
(0.920026 2.27218e-15 0)
(0.885703 1.36186e-16 0)
(0.712205 6.51008e-16 0)
(0.270808 -5.40338e-16 0)
(0.015374 3.00335e-15 0)
(7.15233e-05 2.35689e-15 0)
(2.00419e-08 4.78131e-16 0)
(5.81458e-13 -3.55617e-16 0)
(-2.03621e-16 8.23991e-17 0)
(-1.08093e-16 1.84314e-16 0)
(-2.05209e-16 8.23991e-17 0)
(-3.06267e-16 1.85398e-16 0)
(-1.66504e-16 1.86482e-16 0)
(-1.16758e-16 3.9248e-16 0)
(-1.52628e-16 5.28005e-16 0)
(-6.40076e-17 3.8489e-16 0)
(1.12639e-16 2.54787e-16 0)
(4.01542e-18 1.45283e-16 0)
(-2.16134e-16 3.48028e-16 0)
(-4.23905e-16 5.56194e-16 0)
(-4.51249e-16 4.64037e-16 0)
(-5.30173e-16 5.67036e-16 0)
(-2.1684e-18 -2.1684e-18 0)
(2.70927e-16 -2.1684e-18 0)
(5.77076e-16 -2.1684e-18 0)
(1.72737e-16 3.90311e-17 0)
(-3.08137e-16 2.86228e-16 0)
(-6.93044e-16 2.10334e-16 0)
(-3.73429e-16 -2.1684e-18 0)
(-2.19727e-17 -2.1684e-18 0)
(-1.07149e-17 0 0)
(1.56649e-16 0 0)
(4.07221e-16 -4.33679e-18 0)
(2.31204e-16 -4.98731e-17 0)
(8.32645e-17 2.94902e-16 0)
(2.04184e-16 6.20161e-16 0)
(2.81534e-16 3.5128e-16 0)
(-5.18507e-17 0 0)
(-3.86157e-16 -2.1684e-18 0)
(-1.31307e-16 1.17093e-16 0)
(-8.82268e-17 3.55617e-16 0)
(-2.03412e-16 1.73472e-16 0)
(-7.48651e-18 1.95156e-17 0)
(8.67885e-17 2.2985e-16 0)
(3.55499e-15 4.597e-16 0)
(5.4662e-11 5.61615e-16 0)
(8.81647e-08 8.21606e-15 0)
(1.74642e-05 1.21736e-14 0)
(0.000610633 -1.68029e-14 0)
(0.0057216 3.63336e-14 0)
(0.022066 -2.59049e-15 0)
(0.0502221 -2.47584e-14 0)
(0.0856066 3.90419e-14 0)
(0.124554 -1.0751e-14 0)
(0.165319 9.717e-15 0)
(0.207153 9.08571e-15 0)
(0.2497 6.44142e-15 0)
(0.292764 1.0808e-14 0)
(0.336229 -3.27931e-15 0)
(0.380022 3.08135e-14 0)
(0.424102 -3.72487e-15 0)
(0.468448 5.16984e-15 0)
(0.513056 3.24032e-14 0)
(0.55793 5.93665e-15 0)
(0.603079 3.07345e-15 0)
(0.648504 1.45629e-14 0)
(0.694185 2.93924e-14 0)
(0.740053 2.34692e-14 0)
(0.785908 9.98002e-15 0)
(0.831287 1.9275e-14 0)
(0.874643 6.64511e-15 0)
(0.91181 1.98444e-14 0)
(0.933419 -6.87589e-15 0)
(0.935577 2.38781e-15 0)
(0.925179 9.78937e-15 0)
(0.92652 1.04215e-14 0)
(0.927536 9.729e-15 0)
(0.92775 8.6591e-15 0)
(0.927966 3.04077e-15 0)
(0.928039 2.89491e-15 0)
(0.928315 9.50325e-16 0)
(0.928434 2.89288e-15 0)
(0.928237 6.66683e-15 0)
(0.92808 7.90479e-15 0)
(0.928094 1.05676e-14 0)
(0.928189 7.6616e-15 0)
(0.928375 3.78583e-15 0)
(0.928727 5.15422e-15 0)
(0.929305 2.97377e-15 0)
(0.9292 8.24729e-15 0)
(0.925656 -6.0515e-15 0)
(0.927217 7.76497e-15 0)
(0.93074 -3.1758e-15 0)
(0.929932 4.62601e-15 0)
(0.928132 1.95662e-15 0)
(0.926332 3.39233e-15 0)
(0.925449 5.55071e-15 0)
(0.925234 4.39832e-15 0)
(0.925752 6.02976e-15 0)
(0.925069 4.54302e-15 0)
(0.920026 1.99573e-15 0)
(0.885703 7.13655e-16 0)
(0.712205 4.2565e-15 0)
(0.270808 2.2066e-15 0)
(0.015374 3.11142e-15 0)
(7.15233e-05 2.67996e-15 0)
(2.00419e-08 7.26413e-16 0)
(5.82235e-13 -1.27935e-16 0)
(-7.59688e-18 2.35271e-16 0)
(-2.44939e-16 2.52618e-16 0)
(-3.07046e-16 1.01915e-16 0)
(-2.04309e-16 2.01661e-16 0)
(-1.00662e-16 1.0083e-16 0)
(3.46586e-18 2.05998e-16 0)
(-1.70344e-16 3.83806e-16 0)
(-2.03791e-16 5.8872e-16 0)
(-9.91904e-17 5.41015e-16 0)
(-1.6909e-16 3.78385e-16 0)
(-1.09482e-16 2.40692e-16 0)
(-3.09883e-16 3.28512e-16 0)
(-5.86624e-16 2.30934e-16 0)
(-7.78454e-16 3.23091e-16 0)
(-2.1684e-18 2.1684e-18 0)
(2.51892e-16 2.1684e-18 0)
(5.74248e-16 2.1684e-18 0)
(1.46127e-16 1.64798e-16 0)
(-6.40451e-16 -1.66967e-16 0)
(-6.76701e-16 -5.44268e-16 0)
(-3.28738e-16 -2.40692e-16 0)
(4.79e-18 2.1684e-18 0)
(-3.08685e-17 0 0)
(1.69612e-16 -2.1684e-18 0)
(4.26753e-16 8.89043e-17 0)
(2.43886e-16 2.73218e-16 0)
(2.76717e-16 1.10588e-16 0)
(1.66792e-16 2.55871e-16 0)
(2.93209e-16 7.15571e-17 0)
(-5.49668e-17 9.32411e-17 0)
(-4.01179e-16 2.1684e-18 0)
(-1.56143e-16 2.1684e-18 0)
(-7.85465e-17 -1.30104e-17 0)
(-2.58994e-16 0 0)
(3.60592e-17 4.11995e-17 0)
(2.63599e-16 3.59954e-16 0)
(3.65813e-15 1.71303e-16 0)
(5.46611e-11 -1.53306e-15 0)
(8.81647e-08 3.41739e-15 0)
(1.74642e-05 1.86203e-14 0)
(0.000610633 -1.40563e-14 0)
(0.0057216 2.4136e-14 0)
(0.022066 7.90954e-15 0)
(0.0502221 -3.05167e-14 0)
(0.0856066 3.49599e-14 0)
(0.124554 -9.57866e-15 0)
(0.165319 6.62835e-15 0)
(0.207153 6.84766e-15 0)
(0.2497 -6.09433e-16 0)
(0.292764 1.14481e-14 0)
(0.336229 -6.21719e-15 0)
(0.380022 3.11505e-14 0)
(0.424102 -2.59388e-15 0)
(0.468448 2.50301e-15 0)
(0.513056 3.22717e-14 0)
(0.55793 1.59984e-15 0)
(0.603079 2.47101e-15 0)
(0.648504 1.01763e-14 0)
(0.694185 2.75857e-14 0)
(0.740053 2.02916e-14 0)
(0.785908 5.87366e-15 0)
(0.831287 1.60297e-14 0)
(0.874643 5.62891e-15 0)
(0.91181 1.34416e-14 0)
(0.933419 -4.07155e-16 0)
(0.935577 2.8655e-15 0)
(0.925179 8.98501e-15 0)
(0.92652 4.52527e-15 0)
(0.927536 8.68093e-15 0)
(0.92775 8.26871e-15 0)
(0.927966 2.23053e-15 0)
(0.928039 3.5821e-15 0)
(0.928315 -2.413e-15 0)
(0.928434 6.66756e-16 0)
(0.928237 4.71712e-15 0)
(0.92808 5.78537e-15 0)
(0.928094 1.0016e-14 0)
(0.928189 3.01872e-15 0)
(0.928375 4.2471e-15 0)
(0.928727 3.7198e-15 0)
(0.929305 1.59967e-15 0)
(0.9292 9.84389e-15 0)
(0.925656 -3.82068e-15 0)
(0.927217 7.23851e-15 0)
(0.93074 -4.60845e-15 0)
(0.929932 6.46975e-15 0)
(0.928132 -9.24361e-16 0)
(0.926332 5.25508e-15 0)
(0.925449 6.02094e-15 0)
(0.925234 1.15721e-15 0)
(0.925752 5.3546e-15 0)
(0.925069 7.72626e-16 0)
(0.920026 8.88933e-16 0)
(0.885703 9.93944e-16 0)
(0.712205 6.67375e-15 0)
(0.270808 3.5135e-15 0)
(0.015374 3.63034e-15 0)
(7.15233e-05 3.41175e-15 0)
(2.00419e-08 1.24249e-15 0)
(5.82393e-13 6.52687e-16 0)
(-1.24676e-16 3.88143e-16 0)
(-4.27625e-16 2.48281e-16 0)
(-4.84384e-16 2.52618e-16 0)
(-3.76832e-16 2.92734e-17 0)
(-3.92536e-17 -1.36609e-16 0)
(2.0019e-16 -1.18178e-16 0)
(9.99212e-17 4.22837e-17 0)
(4.55644e-17 4.25006e-16 0)
(3.07238e-17 6.80877e-16 0)
(-1.90731e-16 5.91972e-16 0)
(-3.32282e-16 1.98408e-16 0)
(-5.27361e-16 -1.26851e-16 0)
(-7.47803e-16 -8.13149e-17 0)
(-9.30242e-16 -1.94071e-16 0)
(0 0 0)
(1.87166e-16 0 0)
(2.70454e-16 -1.66967e-16 0)
(-1.53989e-16 -4.20669e-16 0)
(-7.21843e-16 -5.91972e-16 0)
(-3.88197e-16 -2.60208e-16 0)
(-7.55667e-17 -2.1684e-17 0)
(6.13236e-17 0 0)
(-4.50702e-17 0 0)
(1.84346e-16 6.50519e-17 0)
(4.61118e-16 3.42607e-16 0)
(2.43536e-16 5.09573e-16 0)
(-3.7176e-17 2.21176e-16 0)
(8.0511e-17 -1.04083e-16 0)
(3.07107e-16 -6.50519e-17 0)
(-4.9801e-17 -9.54094e-17 0)
(-4.02719e-16 0 0)
(-2.16951e-16 -9.97462e-17 0)
(-4.35019e-17 -3.81638e-16 0)
(-3.61779e-17 -1.36609e-16 0)
(2.23353e-16 0 0)
(9.62668e-17 7.37255e-17 0)
(3.04211e-15 -1.79977e-16 0)
(5.46586e-11 -1.22731e-15 0)
(8.81647e-08 3.58219e-15 0)
(1.74642e-05 1.31797e-14 0)
(0.000610633 -9.07075e-15 0)
(0.0057216 8.90964e-15 0)
(0.022066 1.12612e-14 0)
(0.0502221 -2.64104e-14 0)
(0.0856066 2.81498e-14 0)
(0.124554 -1.02866e-14 0)
(0.165319 4.26438e-15 0)
(0.207153 4.44761e-15 0)
(0.2497 -5.59656e-15 0)
(0.292764 1.15851e-14 0)
(0.336229 -7.10349e-15 0)
(0.380022 2.73253e-14 0)
(0.424102 -3.25454e-15 0)
(0.468448 -3.34172e-16 0)
(0.513056 2.81514e-14 0)
(0.55793 5.69463e-16 0)
(0.603079 1.5539e-15 0)
(0.648504 5.72575e-15 0)
(0.694185 2.28833e-14 0)
(0.740053 1.69701e-14 0)
(0.785908 5.85928e-15 0)
(0.831287 1.32123e-14 0)
(0.874643 9.56939e-15 0)
(0.91181 1.14446e-14 0)
(0.933419 3.17216e-15 0)
(0.935577 4.06549e-15 0)
(0.925179 5.71269e-15 0)
(0.92652 5.58487e-15 0)
(0.927536 1.04422e-14 0)
(0.92775 6.99741e-15 0)
(0.927966 -7.68931e-17 0)
(0.928039 2.79039e-15 0)
(0.928315 -4.87844e-15 0)
(0.928434 -1.44294e-15 0)
(0.928237 1.38578e-15 0)
(0.92808 4.04424e-15 0)
(0.928094 7.3906e-15 0)
(0.928189 5.41164e-16 0)
(0.928375 4.27643e-15 0)
(0.928727 2.51681e-15 0)
(0.929305 1.1729e-15 0)
(0.9292 8.02037e-15 0)
(0.925656 -3.41583e-15 0)
(0.927217 7.59695e-15 0)
(0.93074 -2.04854e-15 0)
(0.929932 5.00626e-15 0)
(0.928132 -2.65028e-15 0)
(0.926332 2.03139e-15 0)
(0.925449 3.65953e-15 0)
(0.925234 9.72386e-16 0)
(0.925752 3.05999e-15 0)
(0.925069 2.52589e-16 0)
(0.920026 -4.89684e-16 0)
(0.885703 -6.66149e-16 0)
(0.712205 5.06996e-15 0)
(0.270808 5.91674e-16 0)
(0.015374 3.71273e-15 0)
(7.15233e-05 4.17714e-15 0)
(2.00419e-08 -1.03541e-15 0)
(5.81683e-13 7.79539e-16 0)
(-9.55755e-17 1.91903e-16 0)
(-4.59326e-16 6.83045e-17 0)
(-6.74825e-16 8.89043e-17 0)
(-5.09326e-16 -8.78201e-17 0)
(-1.84693e-16 4.33679e-18 0)
(6.41277e-17 -2.56955e-16 0)
(3.38701e-16 -1.94071e-16 0)
(3.55051e-16 1.17093e-16 0)
(1.24617e-16 4.23922e-16 0)
(-2.85229e-16 3.66459e-16 0)
(-5.65617e-16 -3.46943e-17 0)
(-7.04445e-16 -3.01407e-16 0)
(-6.01314e-16 -2.41776e-16 0)
(-7.03645e-16 -3.44775e-16 0)
(1.51788e-17 0 0)
(2.15661e-16 -1.40946e-16 0)
(-4.92931e-17 -4.83552e-16 0)
(-2.02227e-16 -8.54348e-16 0)
(-3.80995e-16 -6.72203e-16 0)
(-4.75489e-17 -3.33933e-16 0)
(1.8931e-16 0 0)
(1.44809e-16 8.67359e-18 0)
(-4.13047e-17 0 0)
(1.91198e-16 0 0)
(4.22812e-16 9.54094e-17 0)
(2.76105e-17 2.40692e-16 0)
(-2.88614e-16 0 0)
(-3.19119e-17 -5.20415e-17 0)
(2.22655e-16 0 0)
(-2.38562e-18 -9.32411e-17 0)
(-2.67547e-16 0 0)
(-2.57811e-16 0 0)
(-6.49863e-17 -1.19262e-16 0)
(2.06905e-17 0 0)
(1.84129e-16 0 0)
(1.4012e-17 -9.32411e-17 0)
(2.92084e-15 -6.50519e-17 0)
(5.46584e-11 -1.43114e-16 0)
(8.81647e-08 1.64798e-16 0)
(1.74642e-05 4.49732e-15 0)
(0.000610633 -7.31344e-15 0)
(0.0057216 5.57806e-15 0)
(0.022066 7.33179e-15 0)
(0.0502221 -1.40906e-14 0)
(0.0856066 1.94341e-14 0)
(0.124554 -6.1739e-15 0)
(0.165319 4.06947e-15 0)
(0.207153 4.59016e-15 0)
(0.2497 -7.69796e-15 0)
(0.292764 9.83525e-15 0)
(0.336229 -5.08969e-15 0)
(0.380022 2.09504e-14 0)
(0.424102 -2.62062e-15 0)
(0.468448 -2.16229e-16 0)
(0.513056 2.15953e-14 0)
(0.55793 2.41488e-15 0)
(0.603079 2.77455e-15 0)
(0.648504 4.63079e-15 0)
(0.694185 1.82214e-14 0)
(0.740053 1.37301e-14 0)
(0.785908 8.31558e-15 0)
(0.831287 9.40859e-15 0)
(0.874643 1.55242e-14 0)
(0.91181 3.99141e-15 0)
(0.933419 1.0239e-14 0)
(0.935577 1.12238e-14 0)
(0.925179 7.47276e-15 0)
(0.92652 7.32533e-15 0)
(0.927536 1.11329e-14 0)
(0.92775 6.12794e-15 0)
(0.927966 2.58259e-15 0)
(0.928039 1.21712e-15 0)
(0.928315 -2.30779e-15 0)
(0.928434 3.08566e-17 0)
(0.928237 -2.98705e-16 0)
(0.92808 2.32203e-15 0)
(0.928094 3.96449e-15 0)
(0.928189 1.23261e-15 0)
(0.928375 2.5162e-15 0)
(0.928727 1.53173e-15 0)
(0.929305 2.17765e-15 0)
(0.9292 4.15964e-15 0)
(0.925656 1.22437e-15 0)
(0.927217 4.2315e-15 0)
(0.93074 2.60295e-16 0)
(0.929932 3.47451e-15 0)
(0.928132 -9.4029e-17 0)
(0.926332 3.69671e-16 0)
(0.925449 1.27552e-15 0)
(0.925234 8.25039e-16 0)
(0.925752 7.94091e-16 0)
(0.925069 5.70247e-16 0)
(0.920026 5.60079e-16 0)
(0.885703 -1.31435e-16 0)
(0.712205 2.40326e-15 0)
(0.270808 6.07336e-16 0)
(0.015374 8.33491e-16 0)
(7.15233e-05 3.83781e-16 0)
(2.00419e-08 -5.63783e-16 0)
(5.8166e-13 3.44775e-16 0)
(-8.6982e-17 4.33679e-18 0)
(-4.81025e-16 0 0)
(-7.32272e-16 0 0)
(-5.26962e-16 0 0)
(-3.18061e-16 -1.6263e-17 0)
(5.33369e-17 -9.97462e-17 0)
(4.03708e-16 -9.8662e-17 0)
(4.64429e-16 0 0)
(1.79509e-16 0 0)
(-3.21471e-16 5.74625e-17 0)
(-6.13541e-16 5.85467e-17 0)
(-6.19509e-16 -8.02307e-17 0)
(-5.18773e-16 -3.25259e-17 0)
(-4.9331e-16 -1.32272e-16 0)
(3.3827e-16 1.99492e-16 0)
(3.20275e-16 0 0)
(-5.79556e-17 -1.99492e-16 0)
(-1.20843e-16 -5.2692e-16 0)
(-4.91905e-17 -2.94902e-16 0)
(9.68074e-17 -2.1684e-18 0)
(4.01704e-16 1.84314e-16 0)
(1.92631e-16 3.94648e-16 0)
(-1.86992e-17 2.53702e-16 0)
(2.45535e-16 6.93887e-17 0)
(4.37203e-16 0 0)
(6.91616e-17 0 0)
(-3.0213e-16 0 0)
(-8.80853e-18 -7.37255e-17 0)
(2.3187e-16 0 0)
(-2.00002e-17 9.32411e-17 0)
(-3.22258e-16 9.32411e-17 0)
(-3.928e-16 0 0)
(-1.08427e-16 0 0)
(5.14723e-17 0 0)
(1.76317e-16 0 0)
(4.48571e-18 9.32411e-17 0)
(2.88389e-15 0 0)
(5.46583e-11 -1.03518e-32 0)
(8.81647e-08 -2.48065e-15 0)
(1.74642e-05 1.45285e-16 0)
(0.000610633 -1.27025e-14 0)
(0.0057216 1.21584e-14 0)
(0.022066 -2.47339e-15 0)
(0.0502221 -2.46668e-15 0)
(0.0856066 1.181e-14 0)
(0.124554 -5.44182e-15 0)
(0.165319 7.6554e-15 0)
(0.207153 5.10594e-15 0)
(0.2497 -8.75942e-15 0)
(0.292764 1.01469e-14 0)
(0.336229 -1.88739e-15 0)
(0.380022 1.44228e-14 0)
(0.424102 -1.40784e-15 0)
(0.468448 2.18359e-15 0)
(0.513056 1.51758e-14 0)
(0.55793 3.63923e-15 0)
(0.603079 4.50203e-15 0)
(0.648504 3.15212e-15 0)
(0.694185 1.4435e-14 0)
(0.740053 8.32797e-15 0)
(0.785908 8.87076e-15 0)
(0.831287 5.54596e-15 0)
(0.874643 2.01405e-14 0)
(0.91181 7.36182e-16 0)
(0.933419 1.44234e-14 0)
(0.935577 1.28386e-14 0)
(0.925179 8.48304e-15 0)
(0.92652 8.709e-15 0)
(0.927536 8.76933e-15 0)
(0.92775 2.4253e-15 0)
(0.927966 4.87159e-15 0)
(0.928039 1.2454e-16 0)
(0.928315 -1.08954e-15 0)
(0.928434 -1.18018e-16 0)
(0.928237 -1.20088e-15 0)
(0.92808 1.46926e-15 0)
(0.928094 2.10613e-15 0)
(0.928189 1.66581e-15 0)
(0.928375 -8.03118e-17 0)
(0.928727 2.96802e-17 0)
(0.929305 1.32328e-15 0)
(0.9292 3.18591e-15 0)
(0.925656 3.50389e-15 0)
(0.927217 1.35127e-15 0)
(0.93074 -1.74725e-15 0)
(0.929932 -2.87362e-16 0)
(0.928132 6.2686e-17 0)
(0.926332 -1.1558e-15 0)
(0.925449 -3.3404e-16 0)
(0.925234 -2.69023e-16 0)
(0.925752 -1.05349e-15 0)
(0.925069 -2.37731e-16 0)
(0.920026 3.39131e-16 0)
(0.885703 8.31894e-16 0)
(0.712205 -7.10025e-16 0)
(0.270808 2.46241e-16 0)
(0.015374 -2.03612e-15 0)
(7.15233e-05 -6.37467e-16 0)
(2.00419e-08 6.00646e-16 0)
(5.81667e-13 4.87889e-17 0)
(-3.94748e-17 0 0)
(-3.90513e-16 0 0)
(-6.41792e-16 8.56517e-17 0)
(-6.11409e-16 2.07082e-16 0)
(-3.94825e-16 -7.58939e-18 0)
(7.05092e-17 -1.0842e-18 0)
(4.67579e-16 0 0)
(5.68896e-16 -1.73472e-16 0)
(3.64623e-16 -3.13333e-16 0)
(-3.04664e-17 -7.58939e-17 0)
(-5.29703e-16 2.27682e-16 0)
(-7.98281e-16 1.8323e-16 0)
(-6.90585e-16 2.91649e-16 0)
(-6.09319e-16 2.21176e-16 0)
(7.06897e-16 4.85721e-16 0)
(4.52028e-16 1.84314e-16 0)
(-7.91373e-17 1.34441e-16 0)
(-2.93027e-16 -2.01661e-16 0)
(-1.07471e-16 2.1684e-18 0)
(3.01496e-16 7.15571e-17 0)
(4.63134e-16 4.92226e-16 0)
(1.94694e-16 7.61107e-16 0)
(4.46196e-18 5.76793e-16 0)
(2.68006e-16 3.05744e-16 0)
(3.70352e-16 1.47451e-16 0)
(7.54924e-17 -1.47451e-16 0)
(-2.28878e-16 -7.80623e-17 0)
(-7.01635e-18 -2.58039e-16 0)
(2.36834e-16 -4.77047e-17 0)
(-5.62704e-17 4.33679e-17 0)
(-3.56142e-16 3.44775e-16 0)
(-4.87783e-16 1.6263e-16 0)
(-1.87805e-16 0 0)
(6.78312e-17 0 0)
(1.6241e-16 0 0)
(2.74082e-17 -3.03576e-17 0)
(2.88878e-15 4.33679e-18 0)
(5.46586e-11 8.13149e-16 0)
(8.81647e-08 -6.01947e-15 0)
(1.74642e-05 -3.61694e-15 0)
(0.000610633 -1.05265e-14 0)
(0.0057216 1.71591e-14 0)
(0.022066 -9.55442e-15 0)
(0.0502221 5.84535e-15 0)
(0.0856066 1.02716e-14 0)
(0.124554 -8.13981e-15 0)
(0.165319 1.26245e-14 0)
(0.207153 5.36771e-15 0)
(0.2497 -7.66163e-15 0)
(0.292764 1.05718e-14 0)
(0.336229 1.94115e-15 0)
(0.380022 8.20362e-15 0)
(0.424102 -1.83098e-15 0)
(0.468448 5.58592e-15 0)
(0.513056 9.38948e-15 0)
(0.55793 4.33326e-15 0)
(0.603079 6.23508e-15 0)
(0.648504 2.85173e-15 0)
(0.694185 9.7013e-15 0)
(0.740053 2.45407e-15 0)
(0.785908 9.00679e-15 0)
(0.831287 3.31925e-15 0)
(0.874643 2.03903e-14 0)
(0.91181 -1.69021e-16 0)
(0.933419 1.57405e-14 0)
(0.935577 1.26444e-14 0)
(0.925179 7.69899e-15 0)
(0.92652 7.79079e-15 0)
(0.927536 5.96377e-15 0)
(0.92775 -1.25032e-15 0)
(0.927966 6.79392e-15 0)
(0.928039 -9.01006e-16 0)
(0.928315 -3.83944e-16 0)
(0.928434 1.16905e-15 0)
(0.928237 -1.71604e-15 0)
(0.92808 1.60583e-15 0)
(0.928094 -6.64699e-16 0)
(0.928189 5.8515e-16 0)
(0.928375 -1.1722e-15 0)
(0.928727 -7.31486e-16 0)
(0.929305 -1.77649e-17 0)
(0.9292 -6.28343e-16 0)
(0.925656 5.04701e-15 0)
(0.927217 1.37469e-16 0)
(0.93074 -3.00005e-15 0)
(0.929932 -3.03885e-15 0)
(0.928132 9.73174e-16 0)
(0.926332 1.35734e-16 0)
(0.925449 -1.00623e-15 0)
(0.925234 6.76665e-16 0)
(0.925752 -1.93114e-15 0)
(0.925069 -7.13705e-16 0)
(0.920026 -4.68617e-16 0)
(0.885703 3.47854e-16 0)
(0.712205 -4.33864e-15 0)
(0.270808 -2.87136e-16 0)
(0.015374 -6.06769e-15 0)
(7.15233e-05 -1.25976e-15 0)
(2.00419e-08 -9.20484e-16 0)
(5.81674e-13 -1.4203e-16 0)
(9.05944e-18 0 0)
(-1.55262e-16 -6.72203e-17 0)
(-4.20876e-16 1.94071e-16 0)
(-6.43313e-16 4.16332e-16 0)
(-4.03003e-16 2.05998e-16 0)
(3.60925e-17 5.52941e-17 0)
(4.3158e-16 9.10727e-17 0)
(5.89036e-16 -3.69712e-16 0)
(4.02299e-16 -5.56194e-16 0)
(1.3022e-16 -2.8406e-16 0)
(-4.00027e-16 7.58939e-17 0)
(-7.61212e-16 3.85975e-16 0)
(-7.38716e-16 5.36678e-16 0)
(-8.40254e-16 4.56447e-16 0)
(9.36747e-16 2.4286e-16 0)
(5.21332e-16 1.04083e-16 0)
(-7.69022e-17 1.34441e-16 0)
(-3.25276e-16 2.47197e-16 0)
(1.03106e-17 9.97462e-17 0)
(4.07856e-16 2.66713e-16 0)
(6.48554e-16 3.12249e-16 0)
(2.71806e-16 4.29343e-16 0)
(-1.78227e-16 3.94648e-16 0)
(2.95785e-16 2.62376e-16 0)
(-2.27796e-18 -3.90311e-17 0)
(-1.50324e-16 -2.60208e-16 0)
(-2.13314e-16 -1.73472e-17 0)
(-2.40197e-17 1.06251e-16 0)
(2.54655e-16 2.60208e-17 0)
(1.3517e-16 -1.49619e-16 0)
(-1.9276e-16 1.30104e-16 0)
(-5.58012e-16 2.38524e-16 0)
(-2.48625e-16 8.89043e-17 0)
(6.97435e-17 1.92987e-16 0)
(-1.50007e-16 2.38524e-17 0)
(-1.07097e-16 -2.66713e-16 0)
(3.38334e-15 7.37255e-17 0)
(5.46605e-11 1.89735e-15 0)
(8.81647e-08 -3.46293e-15 0)
(1.74642e-05 -7.25773e-15 0)
(0.000610633 -6.81662e-15 0)
(0.0057216 7.5282e-15 0)
(0.022066 -1.00007e-14 0)
(0.0502221 5.76049e-15 0)
(0.0856066 1.04314e-14 0)
(0.124554 -1.03481e-14 0)
(0.165319 1.53483e-14 0)
(0.207153 4.1016e-15 0)
(0.2497 -5.81719e-15 0)
(0.292764 1.07577e-14 0)
(0.336229 4.85722e-15 0)
(0.380022 3.3144e-15 0)
(0.424102 -2.92893e-15 0)
(0.468448 9.36829e-15 0)
(0.513056 3.06383e-15 0)
(0.55793 4.52189e-15 0)
(0.603079 7.82239e-15 0)
(0.648504 3.0746e-15 0)
(0.694185 5.6973e-15 0)
(0.740053 5.77553e-16 0)
(0.785908 6.84357e-15 0)
(0.831287 3.14699e-15 0)
(0.874643 1.90748e-14 0)
(0.91181 -4.89912e-15 0)
(0.933419 1.66047e-14 0)
(0.935577 1.45945e-14 0)
(0.925179 8.73847e-15 0)
(0.92652 4.52273e-15 0)
(0.927536 4.45303e-15 0)
(0.92775 -1.34601e-15 0)
(0.927966 6.67032e-15 0)
(0.928039 -2.36053e-15 0)
(0.928315 -3.95386e-16 0)
(0.928434 2.18604e-15 0)
(0.928237 2.12313e-16 0)
(0.92808 7.64607e-16 0)
(0.928094 -1.75868e-15 0)
(0.928189 -3.20233e-16 0)
(0.928375 -1.95926e-15 0)
(0.928727 -2.11556e-15 0)
(0.929305 -2.15658e-16 0)
(0.9292 -3.83066e-15 0)
(0.925656 2.61353e-15 0)
(0.927217 -7.96303e-16 0)
(0.93074 -4.5941e-15 0)
(0.929932 -3.85065e-15 0)
(0.928132 -1.45925e-16 0)
(0.926332 1.1522e-15 0)
(0.925449 -1.26421e-15 0)
(0.925234 1.42315e-15 0)
(0.925752 -1.53435e-15 0)
(0.925069 2.14675e-16 0)
(0.920026 -6.92135e-16 0)
(0.885703 -7.41104e-16 0)
(0.712205 -3.18386e-15 0)
(0.270808 6.72595e-16 0)
(0.015374 -2.87496e-15 0)
(7.15233e-05 -3.02146e-15 0)
(2.00419e-08 -5.41015e-16 0)
(5.82014e-13 -1.0842e-18 0)
(1.92721e-17 -1.04083e-16 0)
(1.56531e-17 -2.2985e-16 0)
(-2.00881e-16 -8.67359e-18 0)
(-4.21189e-16 2.65629e-16 0)
(-3.00133e-16 3.96817e-16 0)
(-9.44413e-17 1.91903e-16 0)
(2.12038e-16 8.78201e-17 0)
(3.23696e-16 -1.57209e-16 0)
(5.19841e-16 -3.3068e-16 0)
(2.57993e-16 -1.84314e-16 0)
(-2.40024e-16 -1.0842e-16 0)
(-5.90346e-16 2.13587e-16 0)
(-8.08505e-16 3.36101e-16 0)
(-1.01156e-15 3.14417e-16 0)
(7.22076e-16 -2.1684e-18 0)
(3.96344e-16 2.55871e-16 0)
(-5.68745e-18 3.12249e-16 0)
(-1.42176e-17 5.50773e-16 0)
(1.88901e-16 3.70796e-16 0)
(4.00501e-16 5.65951e-16 0)
(4.28925e-16 3.59954e-16 0)
(1.72502e-16 1.04083e-16 0)
(5.89768e-17 1.97324e-16 0)
(-7.89009e-17 -1.17093e-16 0)
(-3.25098e-16 -3.75133e-16 0)
(-6.93262e-17 -1.2143e-16 0)
(-2.20288e-16 2.1684e-16 0)
(1.75616e-17 4.7271e-16 0)
(2.34524e-16 2.60208e-16 0)
(8.73234e-17 3.25259e-17 0)
(-9.50762e-17 1.36609e-16 0)
(-3.74864e-16 4.20669e-16 0)
(-1.11257e-16 2.9707e-16 0)
(1.01056e-16 4.57532e-16 0)
(-1.45045e-16 2.1684e-16 0)
(-1.54908e-16 6.28835e-17 0)
(3.32881e-15 2.25513e-16 0)
(5.46624e-11 1.66533e-15 0)
(8.81647e-08 1.81061e-15 0)
(1.74642e-05 -4.24145e-15 0)
(0.000610633 -5.708e-15 0)
(0.0057216 6.19687e-15 0)
(0.022066 -4.33589e-15 0)
(0.0502221 2.75974e-15 0)
(0.0856066 6.79487e-15 0)
(0.124554 -1.25528e-14 0)
(0.165319 1.42912e-14 0)
(0.207153 3.34218e-15 0)
(0.2497 -3.4965e-15 0)
(0.292764 7.92746e-15 0)
(0.336229 5.68686e-15 0)
(0.380022 1.1713e-15 0)
(0.424102 -3.7642e-15 0)
(0.468448 1.27166e-14 0)
(0.513056 -3.44958e-15 0)
(0.55793 3.53245e-15 0)
(0.603079 8.91309e-15 0)
(0.648504 1.58236e-15 0)
(0.694185 3.22466e-15 0)
(0.740053 -9.11814e-16 0)
(0.785908 2.98383e-15 0)
(0.831287 3.584e-17 0)
(0.874643 1.78896e-14 0)
(0.91181 -7.7512e-15 0)
(0.933419 1.63473e-14 0)
(0.935577 1.22029e-14 0)
(0.925179 6.33714e-15 0)
(0.92652 1.1673e-15 0)
(0.927536 2.19917e-15 0)
(0.92775 -1.53771e-15 0)
(0.927966 -3.80017e-16 0)
(0.928039 -1.46811e-15 0)
(0.928315 1.43979e-15 0)
(0.928434 7.80957e-16 0)
(0.928237 1.76482e-15 0)
(0.92808 1.96842e-16 0)
(0.928094 2.52956e-16 0)
(0.928189 2.40925e-16 0)
(0.928375 -3.02706e-15 0)
(0.928727 -2.99319e-15 0)
(0.929305 5.10639e-16 0)
(0.9292 -1.69685e-15 0)
(0.925656 -2.97065e-15 0)
(0.927217 2.9062e-15 0)
(0.93074 -2.54146e-15 0)
(0.929932 -8.7748e-16 0)
(0.928132 -2.72324e-16 0)
(0.926332 -1.97946e-16 0)
(0.925449 7.81139e-17 0)
(0.925234 1.32509e-15 0)
(0.925752 2.01573e-15 0)
(0.925069 1.24706e-15 0)
(0.920026 -3.02648e-16 0)
(0.885703 -1.18239e-16 0)
(0.712205 1.87393e-15 0)
(0.270808 -4.07211e-16 0)
(0.015374 3.9524e-15 0)
(7.15233e-05 -1.53946e-16 0)
(2.00419e-08 7.04729e-17 0)
(5.81558e-13 -6.07151e-17 0)
(-8.23563e-17 -2.22261e-16 0)
(3.71881e-17 -9.21569e-17 0)
(6.23243e-18 0 0)
(-1.36844e-16 -1.95156e-17 0)
(-2.60996e-16 1.94071e-16 0)
(-1.27609e-16 8.99885e-17 0)
(6.46371e-17 2.54787e-16 0)
(2.112e-16 2.90565e-16 0)
(3.41311e-16 1.12757e-16 0)
(8.90864e-17 -1.50704e-16 0)
(-2.99272e-16 -2.78639e-16 0)
(-5.73049e-16 -1.0842e-18 0)
(-7.31126e-16 8.78201e-17 0)
(-9.22653e-16 1.36609e-16 0)
(9.21569e-16 -2.19008e-16 0)
(5.1938e-16 -9.97462e-17 0)
(1.37638e-17 -4.11995e-17 0)
(-6.77675e-17 2.49366e-16 0)
(2.80241e-16 1.8865e-16 0)
(6.2336e-16 2.77555e-16 0)
(2.88722e-16 -5.42099e-17 0)
(8.05168e-17 -3.96817e-16 0)
(-1.92569e-16 -2.55871e-16 0)
(-4.29136e-16 -4.90058e-16 0)
(-9.8407e-17 -1.47451e-16 0)
(1.87923e-16 1.38777e-16 0)
(-4.09263e-17 3.03576e-17 0)
(-2.14266e-16 2.49366e-16 0)
(-3.96911e-17 -4.33679e-18 0)
(2.69056e-16 -8.23991e-17 0)
(1.51474e-16 -1.64798e-16 0)
(-5.04397e-17 2.81892e-17 0)
(1.21267e-17 4.33679e-18 0)
(9.71643e-17 3.25259e-17 0)
(-1.00783e-16 -1.47451e-16 0)
(-2.63977e-16 4.33679e-18 0)
(3.23497e-15 1.17093e-16 0)
(5.46635e-11 -6.83045e-16 0)
(8.81647e-08 4.19368e-15 0)
(1.74642e-05 -4.85728e-16 0)
(0.000610633 -2.16735e-15 0)
(0.0057216 8.47603e-16 0)
(0.022066 2.17623e-15 0)
(0.0502221 1.73007e-15 0)
(0.0856066 1.53252e-15 0)