/*--------------------------------*- C++ -*----------------------------------*\
| =========                 |                                                 |
| \\      /  F ield         | OpenFOAM: The Open Source CFD Toolbox           |
|  \\    /   O peration     | Version:  4.1                                   |
|   \\  /    A nd           | Web:      www.OpenFOAM.org                      |
|    \\/     M anipulation  |                                                 |
\*---------------------------------------------------------------------------*/
FoamFile
{
    version     2.0;
    format      ascii;
    class       volVectorField;
    location    "0.21";
    object      U;
}
// * * * * * * * * * * * * * * * * * * * * * * * * * * * * * * * * * * * * * //

dimensions      [0 1 -1 0 0 0 0];

internalField   nonuniform List<vector> 
10000
(
(0 0 0)
(9.95303e-17 0 0)
(2.58808e-16 0 0)
(7.00773e-17 1.36609e-16 0)
(-1.1024e-16 0 0)
(-1.83697e-16 0 0)
(-1.94745e-16 0 0)
(-2.85428e-17 0 0)
(-2.70371e-26 0 0)
(1.51608e-16 1.32272e-16 0)
(3.7831e-16 0 0)
(6.19602e-17 -1.51788e-16 0)
(-2.83572e-16 0 0)
(2.12246e-19 0 0)
(1.56108e-16 0 0)
(-3.29962e-17 1.27935e-16 0)
(-2.23729e-16 0 0)
(-8.08553e-17 0 0)
(-8.27082e-18 0 0)
(-8.90069e-17 0 0)
(3.49293e-19 0 0)
(5.17305e-17 1.06251e-16 0)
(1.45835e-17 0 0)
(9.4901e-17 0 0)
(-5.66078e-17 0 0)
(-2.10841e-16 0 0)
(-3.12313e-16 -1.17093e-16 0)
(-2.58723e-17 8.67359e-17 0)
(2.77675e-16 0 0)
(5.11782e-17 1.36609e-16 0)
(-1.21032e-16 0 0)
(5.89961e-13 -5.35594e-16 0)
(3.62706e-09 -2.64544e-16 0)
(2.23459e-06 1.17094e-16 0)
(0.000192742 5.62357e-15 0)
(0.00345875 4.68008e-15 0)
(0.0200927 -6.60168e-15 0)
(0.0574585 4.43712e-15 0)
(0.110497 2.93996e-15 0)
(0.171712 2.05369e-14 0)
(0.236955 2.52476e-14 0)
(0.304449 1.94005e-14 0)
(0.373427 1.0403e-14 0)
(0.44356 1.47156e-14 0)
(0.514737 1.75678e-14 0)
(0.586985 8.66903e-15 0)
(0.660313 -1.03198e-14 0)
(0.734439 -1.34897e-14 0)
(0.808209 1.23607e-14 0)
(0.876564 1.25842e-14 0)
(0.92784 5.571e-15 0)
(0.94243 6.63616e-15 0)
(0.92349 5.38427e-15 0)
(0.925211 6.41029e-15 0)
(0.926729 4.18864e-15 0)
(0.92725 3.94755e-15 0)
(0.927711 3.57519e-15 0)
(0.92812 3.05524e-15 0)
(0.92872 5.78362e-15 0)
(0.930228 4.63996e-15 0)
(0.932616 4.15776e-15 0)
(0.92422 4.50691e-15 0)
(0.920306 3.14582e-15 0)
(0.929087 3.15378e-15 0)
(0.936408 -2.08418e-15 0)
(0.937954 -6.34985e-15 0)
(0.930125 -8.42345e-15 0)
(0.8658 -7.43923e-15 0)
(0.582371 -4.53649e-15 0)
(0.121049 1.633e-15 0)
(0.00259617 -4.8678e-17 0)
(3.95082e-06 5.74623e-17 0)
(3.08624e-10 1.95156e-16 0)
(7.63494e-15 7.14487e-16 0)
(-1.58104e-16 1.7564e-16 0)
(4.83177e-17 8.67359e-18 0)
(2.5838e-16 0 0)
(6.06411e-17 0 0)
(-1.2684e-16 9.54094e-17 0)
(6.39566e-17 0 0)
(2.64625e-16 0 0)
(6.1153e-17 0 0)
(-1.41502e-16 0 0)
(5.9006e-17 0 0)
(2.50026e-16 9.8662e-17 0)
(7.27656e-17 0 0)
(-1.54923e-16 0 0)
(-4.98669e-17 0 0)
(-4.66746e-17 0 0)
(-1.41894e-16 0 0)
(-2.17884e-16 -6.50519e-18 0)
(-3.70276e-16 0 0)
(-1.6252e-16 3.03576e-17 0)
(6.37122e-17 0 0)
(2.73386e-16 0 0)
(5.79267e-17 0 0)
(-1.69294e-16 7.91465e-17 0)
(-1.86623e-16 1.0842e-17 0)
(-9.54591e-17 0 0)
(0 2.81892e-17 0)
(0 0 0)
(1.37667e-16 0 0)
(2.86047e-16 1.32272e-16 0)
(8.40027e-17 3.20923e-16 0)
(-1.37629e-16 1.25767e-16 0)
(-2.83383e-16 2.47197e-16 0)
(-2.56516e-16 4.98731e-17 0)
(-3.36265e-17 0 0)
(-2.08466e-23 0 0)
(1.74433e-16 0 0)
(4.49281e-16 0 0)
(1.14611e-16 0 0)
(-2.36781e-16 0 0)
(2.99246e-17 0 0)
(1.55051e-16 1.30104e-16 0)
(-4.23641e-17 3.12249e-16 0)
(-2.37015e-16 1.27935e-16 0)
(-1.23267e-16 0 0)
(-2.681e-17 0 0)
(-1.65406e-16 0 0)
(4.51511e-19 0 0)
(8.33618e-17 2.1684e-18 0)
(3.24006e-17 0 0)
(1.11538e-16 1.27935e-16 0)
(-1.04416e-16 3.10081e-16 0)
(-3.01826e-16 1.14925e-16 0)
(-2.22528e-16 7.15571e-17 0)
(-1.86012e-17 2.7105e-16 0)
(1.68537e-16 8.89043e-17 0)
(6.11946e-17 0 0)
(-5.56548e-17 0 0)
(5.89317e-13 -8.89043e-17 0)
(3.62706e-09 5.11742e-16 0)
(2.23459e-06 8.50013e-16 0)
(0.000192742 1.21819e-14 0)
(0.00345875 4.9367e-16 0)
(0.0200927 9.83304e-15 0)
(0.0574585 4.75251e-15 0)
(0.110497 2.18679e-15 0)
(0.171712 2.75882e-14 0)
(0.236955 -7.93729e-15 0)
(0.304449 2.35976e-14 0)
(0.373427 2.51434e-14 0)
(0.44356 2.75026e-15 0)
(0.514737 8.92585e-15 0)
(0.586985 6.84412e-15 0)
(0.660313 7.23836e-15 0)
(0.734439 -4.8376e-15 0)
(0.808209 7.83353e-15 0)
(0.876564 1.15234e-14 0)
(0.92784 9.64483e-15 0)
(0.94243 7.07324e-15 0)
(0.92349 3.8202e-15 0)
(0.925211 8.04547e-15 0)
(0.926729 4.4951e-15 0)
(0.92725 2.64401e-15 0)
(0.927711 1.98238e-15 0)
(0.92812 1.88398e-15 0)
(0.92872 3.55857e-15 0)
(0.930228 1.95292e-15 0)
(0.932616 5.94833e-15 0)
(0.92422 7.64207e-15 0)
(0.920306 4.34312e-15 0)
(0.929087 6.29987e-15 0)
(0.936408 1.77038e-15 0)
(0.937954 -1.35346e-15 0)
(0.930125 -2.32026e-15 0)
(0.8658 -2.07098e-15 0)
(0.582371 -6.80711e-15 0)
(0.121049 4.04619e-15 0)
(0.00259617 -8.94594e-16 0)
(3.95082e-06 9.86617e-17 0)
(3.08625e-10 1.63714e-16 0)
(7.43391e-15 3.59954e-16 0)
(-1.64159e-16 1.79977e-16 0)
(2.91772e-17 1.74556e-16 0)
(1.96572e-16 2.49366e-17 0)
(3.20242e-18 3.57785e-17 0)
(-1.64664e-16 2.00577e-16 0)
(8.96293e-18 2.92734e-17 0)
(2.10216e-16 0 0)
(4.40793e-17 0 0)
(-1.43095e-16 4.98731e-17 0)
(5.23703e-17 1.53956e-16 0)
(2.58968e-16 2.01661e-16 0)
(7.62935e-17 2.1684e-17 0)
(-1.79075e-16 0 0)
(-7.71562e-17 0 0)
(-7.86365e-17 0 0)
(-1.80783e-16 -6.50519e-18 0)
(-1.37886e-16 -2.60208e-17 0)
(-2.49088e-16 1.07336e-16 0)
(-1.26734e-16 2.32018e-16 0)
(6.61825e-17 6.17993e-17 0)
(2.772e-16 0 0)
(5.29753e-17 1.95156e-17 0)
(-1.93771e-16 1.92987e-16 0)
(-2.68708e-16 2.13587e-16 0)
(-1.77487e-16 1.45283e-16 0)
(-1.33356e-16 2.38524e-16 0)
(0 0 0)
(2.10919e-16 0 0)
(5.14992e-16 0 0)
(1.08263e-16 9.10727e-17 0)
(-3.52868e-16 3.44775e-16 0)
(-3.25777e-16 5.72457e-16 0)
(-2.71014e-16 2.40692e-16 0)
(-3.12365e-17 0 0)
(-4.02272e-21 0 0)
(2.18273e-16 0 0)
(5.30094e-16 0 0)
(1.81461e-16 2.1684e-18 0)
(-1.32769e-16 2.38524e-17 0)
(8.67406e-17 2.38524e-16 0)
(3.2177e-16 9.32411e-17 0)
(-4.53655e-17 7.37255e-17 0)
(-4.06443e-16 0 0)
(-1.57913e-16 0 0)
(-6.6398e-17 1.01915e-16 0)
(-2.49423e-16 0 0)
(-5.57894e-19 0 0)
(1.81255e-16 0 0)
(6.71432e-17 8.67359e-17 0)
(1.51708e-16 3.94648e-16 0)
(-1.05589e-16 6.54856e-16 0)
(-3.92299e-16 3.66459e-16 0)
(-3.85019e-16 3.25259e-17 0)
(-3.41053e-17 4.98731e-17 0)
(3.006e-16 0 0)
(8.86331e-17 0 0)
(5.54234e-17 1.36609e-16 0)
(5.89562e-13 3.49112e-16 0)
(3.62706e-09 1.56775e-15 0)
(2.23459e-06 2.82543e-15 0)
(0.000192742 1.40145e-14 0)
(0.00345875 3.98198e-15 0)
(0.0200927 1.66972e-14 0)
(0.0574585 3.87693e-15 0)
(0.110497 -3.31177e-15 0)
(0.171712 3.04635e-14 0)
(0.236955 -1.81699e-14 0)
(0.304449 1.84752e-14 0)
(0.373427 2.64975e-14 0)
(0.44356 -4.88864e-15 0)
(0.514737 4.53561e-15 0)
(0.586985 4.92133e-15 0)
(0.660313 8.97761e-15 0)
(0.734439 -3.49663e-15 0)
(0.808209 8.19186e-15 0)
(0.876564 6.75226e-15 0)
(0.92784 2.69377e-15 0)
(0.94243 4.31989e-15 0)
(0.92349 1.92243e-15 0)
(0.925211 9.69494e-15 0)
(0.926729 4.75148e-15 0)
(0.92725 1.86137e-15 0)
(0.927711 2.25915e-16 0)
(0.92812 7.35615e-16 0)
(0.92872 1.26296e-15 0)
(0.930228 -1.1593e-15 0)
(0.932616 3.62116e-15 0)
(0.92422 7.71574e-15 0)
(0.920306 6.42084e-15 0)
(0.929087 7.61509e-15 0)
(0.936408 5.01778e-15 0)
(0.937954 1.83167e-15 0)
(0.930125 6.43063e-16 0)
(0.8658 2.30901e-15 0)
(0.582371 -3.10895e-15 0)
(0.121049 5.90785e-15 0)
(0.00259617 -1.57392e-15 0)
(3.95082e-06 -1.0083e-16 0)
(3.08625e-10 4.33679e-18 0)
(7.54978e-15 1.0083e-16 0)
(-3.6059e-17 2.54787e-16 0)
(7.01258e-17 3.63206e-16 0)
(1.80671e-16 2.64544e-16 0)
(7.25448e-18 1.47451e-16 0)
(-2.032e-16 1.8865e-16 0)
(-6.67352e-17 2.53702e-16 0)
(1.36787e-16 2.40692e-16 0)
(1.51974e-16 1.69135e-16 0)
(5.11237e-17 2.98155e-16 0)
(1.52118e-16 3.45859e-16 0)
(1.59292e-16 1.37693e-16 0)
(-2.45727e-17 -8.02307e-17 0)
(-1.88044e-16 -2.1684e-17 0)
(-1.01187e-16 8.02307e-17 0)
(-1.19537e-16 -2.05998e-17 0)
(-2.20478e-16 8.23991e-17 0)
(-9.97615e-17 8.23991e-17 0)
(-7.85776e-17 2.80807e-16 0)
(-1.36144e-16 4.35848e-16 0)
(1.11916e-17 3.3068e-16 0)
(1.90604e-16 1.56125e-16 0)
(7.75879e-17 3.36101e-17 0)
(-1.44176e-16 2.1684e-16 0)
(-3.4723e-16 4.18501e-16 0)
(-2.46335e-16 3.31765e-16 0)
(-3.28512e-16 4.33679e-16 0)
(-2.1684e-18 -2.1684e-18 0)
(2.76485e-16 -2.1684e-18 0)
(6.08739e-16 -2.1684e-18 0)
(2.41607e-16 3.90311e-17 0)
(-2.38889e-16 2.86228e-16 0)
(-6.07209e-16 1.69135e-16 0)
(-2.9816e-16 -2.1684e-18 0)
(-1.99406e-17 -2.1684e-18 0)
(-2.01346e-19 0 0)
(1.04987e-16 0 0)
(3.58286e-16 -4.33679e-18 0)
(1.81398e-16 -1.66967e-16 0)
(1.92683e-16 1.95156e-16 0)
(1.67158e-16 5.57278e-16 0)
(2.32732e-16 2.75386e-16 0)
(-4.70432e-17 0 0)
(-3.00581e-16 -2.1684e-18 0)
(-6.41126e-17 1.17093e-16 0)
(-8.4331e-17 3.49112e-16 0)
(-2.64604e-16 1.73472e-16 0)
(-1.56793e-18 0 0)
(2.61324e-16 1.49619e-16 0)
(7.87641e-17 3.29596e-16 0)
(2.3266e-16 1.45283e-16 0)
(-1.08226e-16 2.23345e-16 0)
(-4.57584e-16 8.02307e-17 0)
(-4.36807e-16 -4.33679e-18 0)
(-4.67408e-17 0 0)
(3.23247e-16 -2.1684e-18 0)
(1.04264e-16 0 0)
(6.17278e-17 8.67359e-18 0)
(5.89569e-13 7.82791e-16 0)
(3.62706e-09 6.50519e-16 0)
(2.23459e-06 3.55835e-15 0)
(0.000192742 5.08355e-15 0)
(0.00345875 8.22928e-15 0)
(0.0200927 1.24424e-14 0)
(0.0574585 8.07381e-15 0)
(0.110497 -1.32411e-14 0)
(0.171712 3.09574e-14 0)
(0.236955 -1.83323e-14 0)
(0.304449 1.15459e-14 0)
(0.373427 2.61894e-14 0)
(0.44356 -7.9929e-15 0)
(0.514737 2.60986e-15 0)
(0.586985 5.70069e-15 0)
(0.660313 6.66286e-15 0)
(0.734439 -1.77673e-15 0)
(0.808209 3.19671e-15 0)
(0.876564 -9.3001e-16 0)
(0.92784 -1.06329e-15 0)
(0.94243 2.30531e-15 0)
(0.92349 5.59081e-15 0)
(0.925211 4.63292e-15 0)
(0.926729 3.21825e-15 0)
(0.92725 1.40855e-15 0)
(0.927711 3.76198e-16 0)
(0.92812 3.42053e-16 0)
(0.92872 -1.1684e-15 0)
(0.930228 -8.70855e-16 0)
(0.932616 1.2179e-15 0)
(0.92422 4.13998e-15 0)
(0.920306 8.29867e-15 0)
(0.929087 7.05897e-15 0)
(0.936408 3.229e-15 0)
(0.937954 3.15961e-15 0)
(0.930125 2.48295e-15 0)
(0.8658 3.46513e-15 0)
(0.582371 1.60199e-16 0)
(0.121049 4.19929e-15 0)
(0.00259617 -1.67236e-15 0)
(3.95082e-06 1.26959e-15 0)
(3.08625e-10 3.48028e-16 0)
(7.77138e-15 2.24429e-16 0)
(1.37105e-16 3.83806e-16 0)
(3.26401e-17 3.76217e-16 0)
(1.27192e-16 4.77047e-16 0)
(-2.34141e-17 3.14417e-16 0)
(-2.08176e-16 3.08997e-16 0)
(-3.64215e-17 4.82468e-16 0)
(1.56114e-16 5.35594e-16 0)
(3.06214e-16 3.8489e-16 0)
(2.5045e-16 5.09573e-16 0)
(2.16765e-17 4.40184e-16 0)
(-1.42833e-16 2.15755e-16 0)
(-2.51608e-17 7.48097e-17 0)
(-7.34824e-18 1.37693e-16 0)
(-1.4542e-16 1.61546e-16 0)
(-2.19266e-16 2.81892e-17 0)
(-1.17432e-16 1.27935e-16 0)
(-1.53204e-17 2.7105e-17 0)
(3.64796e-17 1.27935e-16 0)
(-1.5753e-16 3.20923e-16 0)
(-1.69095e-16 5.25836e-16 0)
(-3.00399e-17 3.88143e-16 0)
(-1.00976e-16 2.13587e-16 0)
(-2.91659e-17 1.02999e-16 0)
(-1.76667e-16 2.5045e-16 0)
(-3.56611e-16 1.97324e-16 0)
(-5.48604e-16 2.15755e-16 0)
(-2.1684e-18 2.1684e-18 0)
(3.08124e-16 2.1684e-18 0)
(6.56584e-16 2.1684e-18 0)
(2.3963e-16 1.66967e-16 0)
(-4.92049e-16 -1.49619e-16 0)
(-5.67487e-16 -5.44268e-16 0)
(-2.45896e-16 -2.40692e-16 0)
(-7.06448e-18 2.1684e-18 0)
(-3.25563e-18 0 0)
(1.26917e-16 -2.1684e-18 0)
(3.92131e-16 6.50519e-18 0)
(2.20311e-16 1.51788e-16 0)
(3.9957e-16 2.38524e-17 0)
(2.19665e-16 2.05998e-16 0)
(2.5632e-16 2.38524e-17 0)
(-5.51153e-17 9.10727e-17 0)
(-3.69306e-16 2.1684e-18 0)
(-9.23388e-17 2.1684e-18 0)
(-1.0089e-16 -1.51788e-17 0)
(-2.91441e-16 0 0)
(4.59304e-17 0 0)
(3.27273e-16 2.60208e-16 0)
(6.44956e-17 3.46943e-17 0)
(-2.53507e-17 -9.75778e-17 0)
(-1.32774e-17 -3.70796e-16 0)
(-1.79078e-16 -1.58293e-16 0)
(-1.97977e-16 -1.12757e-16 0)
(3.10402e-17 0 0)
(9.23343e-17 2.1684e-18 0)
(-3.78809e-18 0 0)
(1.00036e-16 0 0)
(5.90865e-13 3.9248e-16 0)
(3.62706e-09 3.31765e-16 0)
(2.23459e-06 2.81892e-16 0)
(0.000192742 -9.32563e-16 0)
(0.00345875 1.11848e-14 0)
(0.0200927 2.68876e-15 0)
(0.0574585 1.4968e-14 0)
(0.110497 -2.15104e-14 0)
(0.171712 2.80494e-14 0)
(0.236955 -1.36205e-14 0)
(0.304449 3.78884e-15 0)
(0.373427 2.71483e-14 0)
(0.44356 -8.22676e-15 0)
(0.514737 2.87324e-15 0)
(0.586985 4.95517e-15 0)
(0.660313 6.4609e-16 0)
(0.734439 -1.90094e-15 0)
(0.808209 -9.26911e-17 0)
(0.876564 -1.34294e-15 0)
(0.92784 -2.5027e-15 0)
(0.94243 -2.79848e-15 0)
(0.92349 3.82747e-15 0)
(0.925211 -2.49626e-15 0)
(0.926729 8.59732e-16 0)
(0.92725 1.03217e-15 0)
(0.927711 4.10754e-16 0)
(0.92812 1.1551e-15 0)
(0.92872 -2.75946e-15 0)
(0.930228 -1.63926e-15 0)
(0.932616 -7.16931e-17 0)
(0.92422 3.02561e-15 0)
(0.920306 9.30828e-15 0)
(0.929087 4.22708e-15 0)
(0.936408 2.01928e-15 0)
(0.937954 1.26415e-15 0)
(0.930125 2.51888e-15 0)
(0.8658 4.33087e-15 0)
(0.582371 1.51986e-15 0)
(0.121049 6.1532e-15 0)
(0.00259617 -3.55133e-15 0)
(3.95082e-06 4.6024e-15 0)
(3.08625e-10 2.33103e-16 0)
(7.68498e-15 3.23091e-16 0)
(-1.99631e-17 2.65629e-16 0)
(7.89264e-17 1.60461e-16 0)
(1.77771e-16 2.65629e-16 0)
(6.69776e-17 2.08166e-16 0)
(-5.32643e-17 3.39354e-16 0)
(9.20202e-17 4.86805e-16 0)
(5.4067e-17 6.21246e-16 0)
(1.78499e-16 5.10657e-16 0)
(6.17595e-17 3.20923e-16 0)
(-1.10228e-16 2.49366e-16 0)
(-1.53165e-16 3.42607e-16 0)
(-2.69501e-17 3.16586e-16 0)
(7.48942e-18 3.31765e-16 0)
(-2.92743e-16 1.85398e-16 0)
(-4.40826e-16 1.6263e-16 0)
(-2.8335e-16 -3.68627e-17 0)
(-5.87158e-18 -1.20346e-16 0)
(2.22388e-16 -1.17093e-16 0)
(9.80143e-17 -4.33679e-18 0)
(6.3427e-17 3.24175e-16 0)
(4.33883e-17 5.61615e-16 0)
(-1.65281e-16 4.20669e-16 0)
(-2.47885e-16 7.58939e-17 0)
(-3.35151e-16 -1.35525e-16 0)
(-4.88345e-16 -6.83045e-17 0)
(-6.3534e-16 -1.94071e-16 0)
(0 0 0)
(1.36492e-16 0 0)
(3.52982e-16 -8.02307e-17 0)
(-5.03236e-17 -3.23091e-16 0)
(-5.63229e-16 -5.46436e-16 0)
(-2.615e-16 -2.40692e-16 0)
(-7.71583e-17 -2.1684e-17 0)
(1.17389e-17 0 0)
(-2.02481e-17 0 0)
(1.47783e-16 2.1684e-18 0)
(4.04475e-16 2.05998e-16 0)
(2.13402e-16 3.85975e-16 0)
(-2.74421e-17 1.40946e-16 0)
(9.60253e-17 -1.36609e-16 0)
(2.98739e-16 -6.50519e-17 0)
(-5.93415e-17 -9.32411e-17 0)
(-4.11826e-16 0 0)
(-1.1982e-16 -9.97462e-17 0)
(-1.34819e-17 -3.77301e-16 0)
(-4.31994e-17 -1.36609e-16 0)
(2.03752e-16 0 0)
(5.64671e-17 1.51788e-17 0)
(-1.78671e-16 -2.23345e-16 0)
(-1.84674e-17 -4.33679e-17 0)
(6.00522e-19 -1.12757e-16 0)
(-4.78449e-18 0 0)
(-2.25257e-18 1.17093e-16 0)
(8.57174e-19 0 0)
(1.69852e-17 0 0)
(-8.42456e-17 0 0)
(2.00738e-16 0 0)
(5.90408e-13 -3.44775e-16 0)
(3.62706e-09 -3.66459e-16 0)
(2.23459e-06 -2.44379e-15 0)
(0.000192742 -3.05794e-15 0)
(0.00345875 4.87581e-15 0)
(0.0200927 1.94543e-15 0)
(0.0574585 1.34958e-14 0)
(0.110497 -2.31121e-14 0)
(0.171712 2.0743e-14 0)
(0.236955 -9.26527e-15 0)
(0.304449 -4.25361e-15 0)
(0.373427 2.12584e-14 0)
(0.44356 -8.60158e-15 0)
(0.514737 -2.17203e-16 0)
(0.586985 2.88876e-15 0)
(0.660313 -2.76475e-16 0)
(0.734439 -1.88304e-15 0)
(0.808209 1.42767e-15 0)
(0.876564 -4.35942e-16 0)
(0.92784 -3.63423e-15 0)
(0.94243 -3.15337e-15 0)
(0.92349 -1.90535e-15 0)
(0.925211 -2.29218e-15 0)
(0.926729 1.91048e-15 0)
(0.92725 -1.6218e-16 0)
(0.927711 -1.26682e-15 0)
(0.92812 3.17476e-16 0)
(0.92872 -4.14671e-15 0)
(0.930228 -3.2659e-15 0)
(0.932616 -2.62714e-15 0)
(0.92422 1.68827e-15 0)
(0.920306 5.70063e-15 0)
(0.929087 1.3347e-15 0)
(0.936408 1.93546e-15 0)
(0.937954 -1.20954e-16 0)
(0.930125 8.92487e-16 0)
(0.8658 2.45582e-15 0)
(0.582371 5.0232e-17 0)
(0.121049 3.97848e-15 0)
(0.00259617 -5.10579e-16 0)
(3.95082e-06 2.49039e-15 0)
(3.08625e-10 -4.67289e-16 0)
(7.66004e-15 9.97462e-17 0)
(-1.49922e-17 3.46943e-17 0)
(9.7255e-17 -7.37255e-17 0)
(2.10193e-16 2.38524e-17 0)
(8.72014e-17 1.84314e-17 0)
(5.02869e-17 9.32411e-17 0)
(1.53554e-16 2.45029e-16 0)
(3.15197e-17 3.69712e-16 0)
(-1.25382e-19 3.16586e-16 0)
(-3.88051e-17 1.04083e-16 0)
(-1.44307e-16 2.1684e-17 0)
(1.30303e-17 1.74556e-16 0)
(1.49654e-16 3.69712e-16 0)
(-1.11956e-17 1.49619e-16 0)
(-3.76654e-16 3.25259e-17 0)
(-6.15626e-16 8.45675e-17 0)
(-4.48831e-16 -8.34833e-17 0)
(-1.40803e-16 1.30104e-17 0)
(9.65898e-17 -2.4286e-16 0)
(3.31514e-16 -2.34187e-16 0)
(3.43716e-16 4.66205e-17 0)
(8.91773e-17 3.19838e-16 0)
(-2.38701e-16 2.20092e-16 0)
(-4.78926e-16 -9.75778e-17 0)
(-4.43495e-16 -3.08997e-16 0)
(-3.41493e-16 -2.48281e-16 0)
(-4.16332e-16 -3.5128e-16 0)
(0 0 0)
(9.30125e-17 -2.81892e-17 0)
(5.73854e-17 -3.79469e-16 0)
(-6.24418e-17 -7.28581e-16 0)
(-2.2775e-16 -4.07659e-16 0)
(-7.3829e-17 -2.1684e-17 0)
(1.01384e-16 0 0)
(5.28734e-17 0 0)
(-5.51463e-17 0 0)
(1.30107e-16 0 0)
(4.09384e-16 1.30104e-17 0)
(2.69616e-18 1.58293e-16 0)
(-3.44929e-16 0 0)
(-5.47419e-17 -5.20415e-17 0)
(1.81829e-16 0 0)
(2.56204e-17 -9.32411e-17 0)
(-2.308e-16 0 0)
(-1.28404e-16 0 0)
(-2.17354e-17 -1.14925e-16 0)
(-3.30449e-18 0 0)
(1.90807e-16 0 0)
(2.58782e-18 -9.32411e-17 0)
(-1.66088e-16 -4.55363e-17 0)
(-1.80578e-17 0 0)
(1.49994e-18 0 0)
(-1.174e-17 0 0)
(-4.11486e-18 0 0)
(-4.59705e-20 0 0)
(-6.96898e-18 0 0)
(-1.26038e-19 0 0)
(1.04572e-17 0 0)
(5.9001e-13 -1.17093e-16 0)
(3.62706e-09 -1.47668e-15 0)
(2.23459e-06 -9.69275e-16 0)
(0.000192742 -3.96881e-15 0)
(0.00345875 -1.09173e-15 0)
(0.0200927 3.7872e-15 0)
(0.0574585 8.25485e-15 0)
(0.110497 -1.72238e-14 0)
(0.171712 1.14497e-14 0)
(0.236955 -6.15822e-15 0)
(0.304449 -6.62835e-15 0)
(0.373427 1.48426e-14 0)
(0.44356 -6.35908e-15 0)
(0.514737 -1.78038e-15 0)
(0.586985 1.42426e-15 0)
(0.660313 1.58532e-15 0)
(0.734439 -2.46196e-15 0)
(0.808209 3.26454e-15 0)
(0.876564 -1.80432e-15 0)
(0.92784 1.74348e-15 0)
(0.94243 2.07227e-15 0)
(0.92349 -1.5413e-15 0)
(0.925211 -3.88483e-16 0)
(0.926729 1.21657e-15 0)
(0.92725 -4.13638e-16 0)
(0.927711 -1.19705e-15 0)
(0.92812 -5.42032e-17 0)
(0.92872 -2.41166e-15 0)
(0.930228 -2.54361e-15 0)
(0.932616 -2.70279e-15 0)
(0.92422 8.19658e-16 0)
(0.920306 2.99527e-15 0)
(0.929087 1.23168e-15 0)
(0.936408 1.2133e-15 0)
(0.937954 3.92974e-17 0)
(0.930125 -4.74727e-16 0)
(0.8658 -1.20362e-16 0)
(0.582371 1.70381e-16 0)
(0.121049 7.53693e-16 0)
(0.00259617 2.16455e-15 0)
(3.95082e-06 4.26088e-16 0)
(3.08626e-10 -2.7105e-16 0)
(7.62975e-15 -1.22514e-16 0)
(-9.90589e-17 -4.55363e-17 0)
(8.81621e-17 -2.27682e-17 0)
(2.42869e-16 0 0)
(8.74921e-17 0 0)
(9.87184e-17 2.1684e-18 0)
(2.0968e-16 0 0)
(6.39915e-17 0 0)
(1.11201e-19 0 0)
(-1.17541e-17 0 0)
(-1.2369e-16 0 0)
(7.21631e-17 2.27682e-17 0)
(2.37955e-16 1.90819e-16 0)
(2.87989e-17 0 0)
(-3.6798e-16 0 0)
(-6.28667e-16 0 0)
(-4.32965e-16 0 0)
(-2.49651e-16 -1.6263e-17 0)
(3.58855e-17 -9.43252e-17 0)
(3.51811e-16 -9.8662e-17 0)
(4.30858e-16 0 0)
(1.60809e-16 0 0)
(-2.7552e-16 1.51788e-17 0)
(-5.41259e-16 5.85467e-17 0)
(-4.26432e-16 -1.0083e-16 0)
(-2.45697e-16 -7.69781e-17 0)
(-2.11419e-16 -1.46367e-16 0)
(1.82145e-16 1.99492e-16 0)
(1.65025e-16 0 0)
(-1.32177e-16 -1.53956e-16 0)
(-7.94355e-17 -3.96817e-16 0)
(-1.16902e-17 -1.27935e-16 0)
(5.34321e-17 0 0)
(3.02102e-16 8.23991e-17 0)
(9.64591e-17 2.68881e-16 0)
(-7.65026e-17 1.38777e-16 0)
(1.49324e-16 -2.1684e-18 0)
(4.21605e-16 0 0)
(5.27284e-17 0 0)
(-3.14895e-16 0 0)
(-2.75233e-17 -7.37255e-17 0)
(2.04499e-16 0 0)
(2.96896e-17 9.32411e-17 0)
(-2.33912e-16 7.37255e-17 0)
(-2.30357e-16 0 0)
(-5.57244e-17 0 0)
(3.08781e-17 0 0)
(2.2312e-16 0 0)
(1.10134e-18 9.32411e-17 0)
(-1.95553e-16 0 0)
(-1.85639e-17 0 0)
(-1.38827e-18 0 0)
(-5.3427e-17 0 0)
(-2.1213e-17 0 0)
(-5.70702e-18 0 0)
(-6.10472e-17 0 0)
(-1.37001e-18 0 0)
(-3.56349e-17 0 0)
(5.89916e-13 -1.58293e-16 0)
(3.62706e-09 -1.05601e-15 0)
(2.23459e-06 2.45246e-15 0)
(0.000192742 -7.84871e-15 0)
(0.00345875 2.04427e-16 0)
(0.0200927 2.84095e-15 0)
(0.0574585 3.51827e-15 0)
(0.110497 -7.86054e-15 0)
(0.171712 3.58283e-15 0)
(0.236955 -4.13697e-15 0)
(0.304449 -5.56883e-15 0)
(0.373427 7.39724e-15 0)
(0.44356 -3.63445e-15 0)
(0.514737 -3.42565e-15 0)
(0.586985 -2.64087e-15 0)
(0.660313 1.79905e-15 0)
(0.734439 -3.97134e-15 0)
(0.808209 4.0445e-15 0)
(0.876564 4.10512e-16 0)
(0.92784 4.4436e-15 0)
(0.94243 3.41994e-15 0)
(0.92349 1.10703e-17 0)
(0.925211 4.37678e-16 0)
(0.926729 -1.02237e-15 0)
(0.92725 -1.37805e-15 0)
(0.927711 -1.23878e-15 0)
(0.92812 -6.04652e-16 0)
(0.92872 -1.90125e-15 0)
(0.930228 -1.73659e-15 0)
(0.932616 -2.21457e-15 0)
(0.92422 -5.08954e-17 0)
(0.920306 4.81156e-16 0)
(0.929087 5.26398e-16 0)
(0.936408 -9.06656e-16 0)
(0.937954 -1.21924e-15 0)
(0.930125 -1.44779e-15 0)
(0.8658 -1.11186e-15 0)
(0.582371 6.10251e-16 0)
(0.121049 -2.28954e-15 0)
(0.00259617 -1.00601e-16 0)
(3.95082e-06 -8.54345e-16 0)
(3.08626e-10 -8.67359e-18 0)
(7.67908e-15 -3.25259e-16 0)
(-4.62696e-17 -1.78893e-16 0)
(1.00137e-16 -4.33679e-17 0)
(2.65035e-16 -1.01915e-16 0)
(1.25483e-16 -1.49619e-16 0)
(8.19201e-18 -1.51788e-17 0)
(-3.78836e-17 -1.48535e-16 0)
(-1.60518e-18 -2.85144e-16 0)
(5.42219e-17 -2.81892e-16 0)
(1.76127e-16 -2.22261e-16 0)
(6.62636e-17 -8.13149e-17 0)
(1.12979e-16 7.26413e-17 0)
(1.16499e-16 3.57785e-17 0)
(9.34102e-20 0 0)
(-3.17559e-16 0 0)
(-5.56463e-16 2.27682e-17 0)
(-5.16829e-16 1.23599e-16 0)
(-3.23719e-16 -6.61361e-17 0)
(6.87647e-17 -1.0842e-18 0)
(4.03082e-16 0 0)
(4.63799e-16 -9.43252e-17 0)
(2.74289e-16 -2.13587e-16 0)
(-7.51167e-17 -1.0842e-17 0)
(-4.07515e-16 2.27682e-16 0)
(-5.92978e-16 1.25767e-16 0)
(-4.26736e-16 1.71303e-16 0)
(-3.16586e-16 1.95156e-16 0)
(4.98731e-16 4.77047e-16 0)
(2.47249e-16 1.84314e-16 0)
(-1.881e-16 1.43114e-16 0)
(-2.65535e-16 -1.40946e-16 0)
(-5.27369e-17 2.1684e-18 0)
(2.10555e-16 1.0842e-17 0)
(3.79814e-16 3.49112e-16 0)
(1.32726e-16 5.96309e-16 0)
(-5.34506e-17 4.09827e-16 0)
(1.91846e-16 1.64798e-16 0)
(3.35229e-16 1.36609e-16 0)
(6.95171e-17 -1.36609e-16 0)
(-2.31959e-16 -7.80623e-17 0)
(-2.19462e-17 -2.66713e-16 0)
(2.14846e-16 -6.50519e-17 0)
(2.58496e-17 2.81892e-17 0)
(-2.52398e-16 3.10081e-16 0)
(-3.65921e-16 1.27935e-16 0)
(-1.15338e-16 0 0)
(6.30094e-17 0 0)
(2.32273e-16 0 0)
(-9.05743e-19 -3.03576e-17 0)
(-2.04793e-16 0 0)
(-2.06988e-17 0 0)
(-3.60243e-17 0 0)
(-1.59143e-16 0 0)
(-7.32461e-17 0 0)
(-2.31658e-17 0 0)
(-1.50527e-16 0 0)
(-9.65294e-18 0 0)
(-2.42989e-17 0 0)
(5.89917e-13 -6.93887e-17 0)
(3.62706e-09 1.66316e-15 0)
(2.23459e-06 6.53339e-15 0)
(0.000192742 -1.07201e-14 0)
(0.00345875 6.30462e-15 0)
(0.0200927 -4.10703e-15 0)
(0.0574585 2.00394e-15 0)
(0.110497 -1.71488e-15 0)
(0.171712 1.52562e-15 0)
(0.236955 -4.31262e-15 0)
(0.304449 -1.87605e-15 0)
(0.373427 -1.56752e-15 0)
(0.44356 -2.7871e-16 0)
(0.514737 -3.72324e-15 0)
(0.586985 -5.56622e-15 0)
(0.660313 1.67356e-15 0)
(0.734439 -4.37552e-15 0)
(0.808209 2.25511e-15 0)
(0.876564 2.86148e-15 0)
(0.92784 4.90383e-15 0)
(0.94243 2.93579e-15 0)
(0.92349 2.47974e-16 0)
(0.925211 1.473e-15 0)
(0.926729 -3.11908e-15 0)
(0.92725 -3.62929e-15 0)
(0.927711 -8.07816e-16 0)
(0.92812 -1.77894e-15 0)
(0.92872 -2.25943e-15 0)
(0.930228 -6.92349e-16 0)
(0.932616 -2.42921e-15 0)
(0.92422 4.63875e-16 0)
(0.920306 -2.08077e-15 0)
(0.929087 -9.00054e-16 0)
(0.936408 -1.79542e-15 0)
(0.937954 -1.41215e-15 0)
(0.930125 -1.38312e-15 0)
(0.8658 -2.99178e-15 0)
(0.582371 5.18611e-16 0)
(0.121049 -5.02462e-15 0)
(0.00259617 -1.51443e-15 0)
(3.95082e-06 -2.89697e-15 0)
(3.08625e-10 1.79977e-16 0)
(7.88552e-15 -9.8662e-17 0)
(-1.2529e-16 -8.45675e-17 0)
(5.86198e-17 -9.64936e-17 0)
(2.22089e-16 -2.61292e-16 0)
(1.19536e-16 -3.32849e-16 0)
(6.96826e-18 -2.20092e-16 0)
(-1.17366e-16 -3.53449e-16 0)
(1.36765e-18 -5.1391e-16 0)
(9.6106e-17 -5.10657e-16 0)
(2.47229e-16 -4.41269e-16 0)
(1.27411e-16 -2.72134e-16 0)
(1.67477e-16 -7.26413e-17 0)
(1.45775e-16 0 0)
(1.00942e-17 0 0)
(-9.94947e-17 -6.72203e-17 0)
(-3.66487e-16 9.32411e-17 0)
(-5.47872e-16 3.03576e-16 0)
(-3.1799e-16 1.39862e-16 0)
(3.12545e-17 1.84314e-17 0)
(3.42692e-16 9.10727e-17 0)
(4.93767e-16 -2.55871e-16 0)
(3.35106e-16 -4.25006e-16 0)
(9.46916e-17 -1.81061e-16 0)
(-3.4255e-16 5.09573e-17 0)
(-5.39437e-16 2.99239e-16 0)
(-4.29247e-16 3.94648e-16 0)
(-5.31257e-16 4.10911e-16 0)
(7.13402e-16 2.51534e-16 0)
(3.21949e-16 1.04083e-16 0)
(-1.85873e-16 1.0842e-16 0)
(-3.2429e-16 1.90819e-16 0)
(1.43493e-17 9.97462e-17 0)
(3.70886e-16 2.62376e-16 0)
(5.62747e-16 1.69135e-16 0)
(2.05189e-16 3.18754e-16 0)
(-2.34983e-16 2.2985e-16 0)
(2.78383e-16 3.10081e-16 0)
(-2.50888e-17 1.0842e-17 0)
(-1.53001e-16 -2.53702e-16 0)
(-1.98917e-16 -6.50519e-18 0)
(-5.74092e-17 9.10727e-17 0)
(2.446e-16 6.50519e-18 0)
(2.34783e-16 -1.79977e-16 0)
(-8.35031e-17 1.0842e-16 0)
(-4.5069e-16 2.34187e-16 0)
(-1.72224e-16 8.45675e-17 0)
(6.90133e-17 1.92987e-16 0)
(-1.67137e-16 3.46943e-17 0)
(-1.21854e-16 -2.32018e-16 0)
(1.41226e-16 3.90311e-17 0)
(1.53577e-16 2.60208e-16 0)
(-1.42835e-16 1.17093e-16 0)
(-3.24901e-16 2.38524e-17 0)
(-1.67701e-16 0 0)
(-4.7329e-17 0 0)
(-2.14295e-16 2.60208e-17 0)
(-4.7707e-17 -4.33679e-18 0)
(9.70637e-17 2.60208e-17 0)
(5.89928e-13 4.98731e-17 0)
(3.62706e-09 1.68484e-15 0)
(2.23459e-06 5.77445e-15 0)
(0.000192742 -7.82268e-15 0)
(0.00345875 1.12e-14 0)
(0.0200927 -1.01837e-14 0)
(0.0574585 9.81473e-16 0)
(0.110497 -1.16907e-15 0)
(0.171712 2.02705e-15 0)
(0.236955 -5.28e-15 0)
(0.304449 2.36202e-15 0)
(0.373427 -1.0654e-14 0)
(0.44356 1.05237e-15 0)
(0.514737 -3.26147e-15 0)
(0.586985 -4.66062e-15 0)
(0.660313 -4.47067e-16 0)
(0.734439 -4.15028e-15 0)
(0.808209 1.33498e-15 0)
(0.876564 -6.24851e-16 0)
(0.92784 4.91716e-15 0)
(0.94243 5.1544e-15 0)
(0.92349 3.44634e-15 0)
(0.925211 8.51553e-16 0)
(0.926729 -1.14418e-15 0)
(0.92725 -3.22497e-15 0)
(0.927711 -2.04399e-16 0)
(0.92812 -2.36676e-15 0)
(0.92872 -1.91271e-15 0)
(0.930228 -8.00714e-16 0)
(0.932616 -5.53313e-16 0)
(0.92422 -1.4687e-16 0)
(0.920306 -2.43528e-15 0)
(0.929087 -1.67351e-15 0)
(0.936408 -2.35659e-15 0)
(0.937954 -1.88576e-15 0)
(0.930125 -2.16476e-15 0)
(0.8658 -3.72582e-15 0)
(0.582371 -8.07106e-16 0)
(0.121049 -3.54569e-15 0)
(0.00259617 -1.8952e-15 0)
(3.95082e-06 -1.54931e-15 0)
(3.08625e-10 -7.91465e-17 0)
(7.58585e-15 9.54094e-17 0)
(-1.92546e-16 -1.09504e-16 0)
(-6.29335e-17 2.05998e-17 0)
(1.16868e-16 -8.99885e-17 0)
(1.69029e-16 -1.48535e-16 0)
(-7.56929e-18 -9.21569e-17 0)
(-1.66359e-16 -2.11419e-16 0)
(1.10421e-17 -2.48281e-16 0)
(1.42061e-16 -2.74302e-16 0)
(3.12869e-16 -2.37439e-16 0)
(2.12913e-16 -2.56955e-16 0)
(2.55229e-16 -1.04083e-16 0)
(1.75327e-16 0 0)
(2.85396e-17 -9.43252e-17 0)
(5.24184e-17 -2.39608e-16 0)
(-7.29355e-17 -8.67359e-18 0)
(-3.08914e-16 2.32018e-16 0)
(-2.71267e-16 3.41522e-16 0)
(-6.93831e-17 1.43114e-16 0)
(1.87223e-16 1.6263e-17 0)
(2.39641e-16 -1.51788e-16 0)
(4.05022e-16 -2.60208e-16 0)
(2.05366e-16 -7.69781e-17 0)
(-1.56556e-16 -1.05167e-16 0)
(-3.945e-16 1.49619e-16 0)
(-4.96443e-16 2.08166e-16 0)
(-6.64614e-16 2.80807e-16 0)
(5.05236e-16 -2.1684e-18 0)
(2.23535e-16 2.55871e-16 0)
(-1.19626e-16 2.90565e-16 0)
(-7.79715e-17 4.74879e-16 0)
(1.80874e-16 3.57785e-16 0)
(4.22003e-16 5.89804e-16 0)
(3.79504e-16 3.46943e-16 0)
(6.19543e-17 1.23599e-16 0)
(-5.23174e-17 1.97324e-16 0)
(-8.93244e-17 -5.85467e-17 0)
(-3.27736e-16 -3.12249e-16 0)
(-7.52896e-17 -6.28835e-17 0)
(-2.07415e-16 2.34187e-16 0)
(1.20637e-18 4.597e-16 0)
(2.27202e-16 2.36355e-16 0)
(9.11537e-17 -4.81481e-34 0)
(1.63884e-18 1.36609e-16 0)
(-2.61717e-16 4.03322e-16 0)
(-5.78e-17 3.01407e-16 0)
(6.21749e-17 4.90058e-16 0)
(-1.74098e-16 2.55871e-16 0)
(-1.19831e-16 6.28835e-17 0)
(1.47026e-16 2.58039e-16 0)
(1.83777e-16 5.76793e-16 0)
(-1.76562e-16 3.75133e-16 0)
(-5.43939e-16 2.27682e-16 0)
(-2.83885e-16 2.81892e-17 0)
(-6.31878e-17 6.50519e-17 0)
(-2.48106e-16 6.50519e-18 0)
(-1.65692e-16 -1.77809e-16 0)
(2.22749e-16 0 0)
(5.90025e-13 -2.14671e-16 0)
(3.62706e-09 -2.19659e-15 0)
(2.23459e-06 5.01334e-15 0)
(0.000192742 -4.60426e-15 0)
(0.00345875 6.82439e-15 0)
(0.0200927 -1.04484e-14 0)
(0.0574585 -1.92651e-15 0)
(0.110497 8.47308e-16 0)
(0.171712 2.46563e-15 0)
(0.236955 -5.20681e-15 0)
(0.304449 6.15651e-15 0)
(0.373427 -1.67122e-14 0)
(0.44356 -6.24696e-17 0)
(0.514737 -2.19255e-15 0)
(0.586985 -3.59037e-15 0)
(0.660313 -2.81966e-15 0)
(0.734439 -4.45657e-15 0)
(0.808209 1.88886e-15 0)
(0.876564 1.00509e-16 0)
(0.92784 2.51349e-15 0)
(0.94243 3.96307e-15 0)
(0.92349 3.42103e-15 0)
(0.925211 6.34776e-19 0)
(0.926729 3.95426e-16 0)
(0.92725 -1.41723e-15 0)
(0.927711 -1.07578e-15 0)
(0.92812 -1.97051e-15 0)
(0.92872 -2.87265e-16 0)
(0.930228 -1.39534e-15 0)
(0.932616 6.68549e-16 0)
(0.92422 -1.20695e-15 0)
(0.920306 -3.46371e-16 0)
(0.929087 -7.48849e-16 0)
(0.936408 -3.04246e-15 0)
(0.937954 -2.46553e-15 0)
(0.930125 -1.91123e-15 0)
(0.8658 -3.1564e-15 0)
(0.582371 -3.20738e-15 0)
(0.121049 1.96274e-15 0)
(0.00259617 -8.35099e-16 0)
(3.95082e-06 1.2967e-15 0)
(3.08625e-10 -2.75386e-16 0)
(7.53219e-15 -8.34833e-17 0)
(-1.48568e-16 8.78201e-17 0)
(4.36851e-17 1.68051e-16 0)
(2.46915e-16 1.99492e-16 0)
(1.06811e-16 2.81892e-17 0)
(-8.94263e-17 -6.93887e-17 0)
(-5.5019e-17 9.64936e-17 0)
(1.07346e-16 1.72388e-16 0)
(5.4121e-18 6.83045e-17 0)
(9.39125e-17 6.28835e-17 0)
(2.41274e-16 -4.77047e-17 0)
(2.79778e-16 -2.1684e-18 0)
(8.83956e-17 0 0)
(-7.45604e-17 -1.5504e-16 0)
(7.55106e-17 -5.63783e-17 0)
(1.45623e-16 0 0)
(-3.20882e-17 -1.95156e-17 0)
(-1.83132e-16 1.46367e-16 0)
(-1.1815e-16 4.22837e-17 0)
(5.76263e-17 1.47451e-16 0)
(1.88649e-16 1.95156e-16 0)
(3.15053e-16 8.13149e-17 0)
(1.11804e-16 -1.35525e-16 0)
(-2.34538e-16 -2.21176e-16 0)
(-4.35397e-16 -1.6263e-17 0)
(-4.49886e-16 1.51788e-17 0)
(-5.73541e-16 1.20346e-16 0)
(7.17739e-16 -2.25513e-16 0)
(3.31055e-16 -9.97462e-17 0)
(-1.12972e-16 -5.20415e-17 0)
(-1.45051e-16 2.03829e-16 0)
(2.05594e-16 1.7564e-16 0)
(5.41916e-16 2.92734e-16 0)
(2.09466e-16 -3.90311e-17 0)
(-2.4491e-17 -3.57785e-16 0)
(-2.72678e-16 -2.12503e-16 0)
(-4.53856e-16 -4.27174e-16 0)
(-1.10029e-16 -9.32411e-17 0)
(1.75121e-16 2.14671e-16 0)
(-2.41922e-17 5.42099e-17 0)
(-2.11441e-16 2.47197e-16 0)
(-3.4285e-17 -4.33679e-18 0)
(2.75044e-16 -5.63783e-17 0)
(1.94592e-16 -1.6263e-16 0)
(1.02338e-17 1.73472e-17 0)
(5.36678e-18 4.33679e-18 0)
(3.81632e-17 6.72203e-17 0)
(-1.4831e-16 -1.10588e-16 0)
(-9.57429e-17 4.33679e-18 0)
(1.46774e-16 8.02307e-17 0)
(4.12279e-17 1.99492e-16 0)
(-3.42519e-16 8.67359e-18 0)
(-7.15553e-16 1.0842e-17 0)
(-4.08052e-16 0 0)
(1.18804e-16 -2.1684e-18 0)
(-1.13727e-16 -2.27682e-16 0)
(-4.50557e-16 -4.57532e-16 0)