/*--------------------------------*- C++ -*----------------------------------*\
| =========                 |                                                 |
| \\      /  F ield         | OpenFOAM: The Open Source CFD Toolbox           |
|  \\    /   O peration     | Version:  4.1                                   |
|   \\  /    A nd           | Web:      www.OpenFOAM.org                      |
|    \\/     M anipulation  |                                                 |
\*---------------------------------------------------------------------------*/
FoamFile
{
    version     2.0;
    format      ascii;
    class       volVectorField;
    location    "0.07";
    object      U;
}
// * * * * * * * * * * * * * * * * * * * * * * * * * * * * * * * * * * * * * //

dimensions      [0 1 -1 0 0 0 0];

internalField   nonuniform List<vector> 
10000
(
(0 0 0)
(6.28018e-18 0 0)
(7.73959e-17 0 0)
(7.67628e-18 9.32411e-17 0)
(-4.64071e-17 0 0)
(-5.35498e-18 0 0)
(-1.01117e-17 0 0)
(-3.4585e-20 0 0)
(8.98438e-33 0 0)
(8.07056e-17 1.0842e-16 0)
(2.76882e-16 0 0)
(-1.64155e-17 -1.47451e-16 0)
(-3.11088e-16 0 0)
(-4.49819e-17 0 0)
(8.25373e-17 0 0)
(4.14969e-18 9.32411e-17 0)
(-8.37677e-17 0 0)
(-3.961e-18 0 0)
(-1.75895e-21 0 0)
(-2.78629e-19 0 0)
(1.91973e-22 0 0)
(-4.43944e-18 9.32411e-17 0)
(2.09096e-18 0 0)
(8.16157e-18 0 0)
(3.91096e-20 0 0)
(-6.20311e-18 0 0)
(-1.90851e-16 -1.17093e-16 0)
(4.41552e-19 6.28835e-17 0)
(1.81195e-16 0 0)
(8.75472e-19 1.2143e-16 0)
(-1.12307e-16 0 0)
(-2.12914e-24 -9.32411e-17 0)
(6.82142e-17 -2.1684e-18 0)
(-1.16869e-16 0 0)
(5.89218e-19 0 0)
(1.81855e-17 1.92987e-16 0)
(-6.18174e-17 6.50519e-18 0)
(7.92144e-18 0 0)
(-1.78287e-16 0 0)
(1.31014e-16 -1.06251e-16 0)
(2.78888e-12 0 0)
(1.97865e-08 3.25259e-17 0)
(1.24126e-05 2.61511e-15 0)
(0.000984539 -1.35638e-15 0)
(0.0152674 1.99909e-16 0)
(0.0762805 -4.6324e-15 0)
(0.194538 -4.29084e-15 0)
(0.350426 2.41806e-15 0)
(0.515 -1.46701e-15 0)
(0.707968 -1.17648e-15 0)
(0.900941 3.52872e-15 0)
(0.960633 4.37943e-15 0)
(0.93501 4.5157e-15 0)
(0.944003 3.452e-15 0)
(0.937125 3.6908e-16 0)
(0.787316 1.36445e-16 0)
(0.386496 1.09543e-15 0)
(0.0391646 -1.62761e-15 0)
(0.00038222 -5.93939e-16 0)
(2.66715e-07 -1.20346e-16 0)
(1.04582e-11 2.58039e-16 0)
(2.26987e-16 0 0)
(3.00535e-18 0 0)
(1.02204e-16 -6.61361e-17 0)
(-1.97486e-18 -2.15755e-16 0)
(-1.0683e-16 -5.74625e-17 0)
(-2.68161e-18 0 0)
(-6.43966e-22 0 0)
(8.62446e-17 0 0)
(2.43404e-16 0 0)
(3.81119e-17 0 0)
(-1.67916e-16 0 0)
(-6.60099e-18 1.07336e-16 0)
(-2.82745e-17 3.43691e-16 0)
(-1.32411e-16 1.45283e-16 0)
(3.37018e-17 0 0)
(2.24285e-16 0 0)
(2.17658e-17 0 0)
(-1.72353e-16 8.13149e-17 0)
(1.8308e-17 0 0)
(2.2038e-16 0 0)
(1.68093e-17 0 0)
(-1.86702e-16 0 0)
(1.70329e-17 0 0)
(2.1564e-16 6.28835e-17 0)
(8.01458e-17 0 0)
(-1.07448e-16 0 0)
(-4.39373e-18 0 0)
(-7.0345e-19 0 0)
(-2.30022e-17 0 0)
(-7.52776e-17 -6.50519e-18 0)
(-2.15953e-16 0 0)
(-4.93178e-17 0 0)
(5.50792e-17 0 0)
(2.16426e-16 0 0)
(1.25583e-17 0 0)
(-1.84932e-16 6.72203e-17 0)
(-6.2202e-17 0 0)
(-1.23457e-18 0 0)
(0 0 0)
(0 0 0)
(4.64082e-17 0 0)
(2.11403e-16 9.54094e-17 0)
(2.76356e-17 2.77555e-16 0)
(-1.58338e-16 9.54094e-17 0)
(-4.71941e-17 1.12757e-16 0)
(-7.84286e-17 0 0)
(-2.96028e-18 0 0)
(5.22016e-32 0 0)
(3.56598e-17 0 0)
(2.14488e-16 0 0)
(-3.85099e-19 0 0)
(-2.52057e-16 0 0)
(-3.88573e-18 0 0)
(2.02872e-16 9.54094e-17 0)
(8.464e-18 2.77555e-16 0)
(-1.84528e-16 9.54094e-17 0)
(-2.53807e-17 0 0)
(-1.50578e-19 0 0)
(-1.04176e-17 0 0)
(3.32612e-20 0 0)
(-3.88441e-18 2.1684e-18 0)
(2.87158e-18 0 0)
(5.98566e-17 0 0)
(-6.21045e-19 1.01915e-16 0)
(-6.50154e-17 0 0)
(-6.935e-17 6.72203e-17 0)
(2.77642e-20 2.4286e-16 0)
(5.12976e-17 3.90311e-17 0)
(3.26492e-18 0 0)
(-1.6077e-16 0 0)
(-6.00299e-23 1.30104e-17 0)
(1.6077e-16 -9.10727e-17 0)
(3.38908e-19 0 0)
(7.64221e-18 1.14925e-16 0)
(3.22164e-17 3.72964e-16 0)
(-1.30541e-16 1.92987e-16 0)
(5.28082e-17 3.46943e-17 0)
(-1.30691e-16 0 0)
(-7.15282e-17 1.66967e-16 0)
(2.7888e-12 -1.6263e-16 0)
(1.97865e-08 2.10334e-16 0)
(1.24126e-05 4.13734e-15 0)
(0.000984539 -5.57527e-15 0)
(0.0152674 -3.00742e-15 0)
(0.0762805 2.12289e-15 0)
(0.194538 -2.22564e-15 0)
(0.350426 2.56928e-16 0)
(0.515 8.71523e-16 0)
(0.707968 1.01921e-15 0)
(0.900941 4.63019e-15 0)
(0.960633 4.8311e-15 0)
(0.93501 4.08321e-15 0)
(0.944003 3.19776e-15 0)
(0.937125 8.73155e-16 0)
(0.787316 -5.54308e-16 0)
(0.386496 2.38239e-15 0)
(0.0391646 -9.64592e-15 0)
(0.00038222 8.77903e-17 0)
(2.66715e-07 -4.185e-16 0)
(1.04577e-11 2.5045e-16 0)
(2.35111e-16 7.80623e-17 0)
(2.54032e-17 0 0)
(1.07144e-16 6.17993e-17 0)
(-6.44383e-18 2.81892e-17 0)
(-1.35088e-16 7.37255e-17 0)
(-2.13761e-17 0 0)
(1.21518e-19 0 0)
(7.96494e-17 0 0)
(2.26872e-16 6.72203e-17 0)
(5.45984e-17 0 0)
(-8.19623e-17 0 0)
(2.06978e-17 4.44521e-17 0)
(-8.26491e-17 1.45283e-16 0)
(-1.86638e-16 4.44521e-17 0)
(1.2086e-17 2.38524e-17 0)
(2.14553e-16 0 0)
(1.63712e-17 1.6263e-17 0)
(-1.5214e-16 1.8323e-16 0)
(1.44989e-17 1.6263e-17 0)
(2.11459e-16 0 0)
(2.12028e-17 0 0)
(-1.76255e-16 0 0)
(2.99015e-17 3.36101e-17 0)
(2.1672e-16 1.64798e-16 0)
(5.82936e-17 1.0842e-18 0)
(-1.3182e-16 0 0)
(-2.00093e-17 0 0)
(-8.82305e-18 0 0)
(-7.56071e-17 -6.50519e-18 0)
(-4.68539e-17 -1.0842e-16 0)
(-1.51844e-16 -1.0842e-18 0)
(-4.85124e-17 1.04083e-16 0)
(5.34083e-17 0 0)
(2.20023e-16 0 0)
(2.64204e-17 4.33679e-18 0)
(-1.37814e-16 1.69135e-16 0)
(-1.00879e-16 7.69781e-17 0)
(-2.04039e-17 0 0)
(0 8.02307e-17 0)
(0 0 0)
(1.2762e-16 0 0)
(3.94044e-16 0 0)
(5.61454e-17 6.72203e-17 0)
(-3.16961e-16 1.92987e-16 0)
(-1.33e-16 3.75133e-16 0)
(-1.99088e-16 1.32272e-16 0)
(-2.85387e-17 0 0)
(-5.85997e-30 0 0)
(7.49272e-17 0 0)
(3.13395e-16 0 0)
(2.26039e-19 4.33679e-18 0)
(-3.24418e-16 0 0)
(-1.07762e-18 1.23599e-16 0)
(3.19264e-16 0 0)
(9.07674e-18 5.42099e-17 0)
(-2.94403e-16 0 0)
(-6.21819e-17 0 0)
(-2.09447e-18 9.97462e-17 0)
(-8.46822e-17 0 0)
(1.11973e-18 0 0)
(3.85276e-17 0 0)
(1.64732e-17 6.72203e-17 0)
(1.43192e-16 1.71303e-16 0)
(-6.4908e-18 3.55617e-16 0)
(-2.16858e-16 1.25767e-16 0)
(-2.02284e-16 0 0)
(-1.54704e-18 3.46943e-17 0)
(1.68599e-16 0 0)
(2.81025e-17 0 0)
(1.59935e-25 4.77047e-17 0)
(-6.51186e-22 2.7105e-16 0)
(6.39411e-25 9.54094e-17 0)
(1.35021e-18 8.02307e-17 0)
(2.83594e-17 2.62376e-16 0)
(7.17655e-17 2.45029e-16 0)
(-1.09814e-16 4.29343e-16 0)
(-4.52705e-17 2.21176e-16 0)
(-2.53517e-16 1.25767e-16 0)
(1.21083e-16 4.01153e-16 0)
(2.78831e-12 -4.11995e-16 0)
(1.97865e-08 -2.19008e-16 0)
(1.24126e-05 1.87785e-15 0)
(0.000984539 -4.12557e-15 0)
(0.0152674 -1.09181e-15 0)
(0.0762805 2.39954e-15 0)
(0.194538 5.85289e-16 0)
(0.350426 -5.74052e-16 0)
(0.515 2.66145e-15 0)
(0.707968 2.77372e-15 0)
(0.900941 1.24829e-15 0)
(0.960633 2.29062e-15 0)
(0.93501 2.32834e-15 0)
(0.944003 3.48609e-15 0)
(0.937125 3.25518e-16 0)
(0.787316 -1.45541e-15 0)
(0.386496 -2.6845e-16 0)
(0.0391646 -5.94233e-15 0)
(0.00038222 1.01121e-15 0)
(2.66715e-07 -1.56667e-15 0)
(1.04576e-11 3.28512e-16 0)
(2.38178e-16 2.33103e-16 0)
(6.62982e-17 1.30104e-16 0)
(1.68096e-16 2.33103e-16 0)
(-3.2142e-17 2.03829e-16 0)
(-2.32693e-16 2.4286e-16 0)
(-8.19756e-17 8.67359e-17 0)
(3.87127e-18 1.51788e-17 0)
(8.11614e-17 8.02307e-17 0)
(1.93177e-16 2.34187e-16 0)
(3.54927e-17 7.69781e-17 0)
(-1.14519e-16 5.96309e-17 0)
(2.61311e-18 6.93887e-17 0)
(5.14885e-18 -3.14417e-17 0)
(-8.97463e-17 7.26413e-17 0)
(1.92935e-17 1.82145e-16 0)
(1.25919e-16 8.02307e-17 0)
(1.46156e-17 0 0)
(-1.27405e-16 8.13149e-17 0)
(-6.70717e-17 7.15571e-17 0)
(7.96499e-17 4.98731e-17 0)
(6.5888e-17 -1.0842e-17 0)
(-3.71462e-17 9.10727e-17 0)
(6.6257e-17 1.7564e-16 0)
(1.55706e-16 4.44521e-17 0)
(5.1889e-18 -1.09504e-16 0)
(-1.34993e-16 -5.63783e-17 0)
(-3.36109e-17 5.20415e-17 0)
(-2.66791e-17 -4.98731e-17 0)
(-1.2712e-16 5.42099e-17 0)
(-2.63041e-17 -2.1684e-18 0)
(-2.40004e-17 1.27935e-16 0)
(-8.87083e-17 2.67797e-16 0)
(-4.17209e-17 1.05167e-16 0)
(1.48703e-16 3.36101e-17 0)
(1.31102e-16 -1.04083e-16 0)
(-6.32178e-17 3.14417e-17 0)
(-1.81789e-16 2.27682e-16 0)
(-7.96583e-17 1.26851e-16 0)
(-6.61361e-17 2.2985e-16 0)
(-2.1684e-18 -2.1684e-18 0)
(9.31507e-17 -2.1684e-18 0)
(3.09605e-16 -2.1684e-18 0)
(1.07753e-16 3.90311e-17 0)
(-1.17483e-16 3.01407e-16 0)
(-1.78425e-16 5.63783e-17 0)
(-3.15877e-16 -2.1684e-18 0)
(-7.51151e-17 -2.1684e-18 0)
(-1.18731e-25 0 0)
(6.65045e-18 0 0)
(1.40163e-16 -4.33679e-18 0)
(2.1846e-17 -1.73472e-16 0)
(-7.71692e-18 6.93887e-17 0)
(1.79281e-17 3.90311e-16 0)
(1.55138e-16 1.66967e-16 0)
(1.52202e-18 0 0)
(-1.12869e-16 -2.1684e-18 0)
(3.22038e-17 1.0842e-16 0)
(-9.15845e-18 3.53449e-16 0)
(-1.82166e-16 1.71303e-16 0)
(1.01967e-17 0 0)
(1.55127e-16 1.01915e-16 0)
(4.81343e-17 2.99239e-16 0)
(2.29522e-16 1.12757e-16 0)
(-4.61693e-17 3.03576e-17 0)
(-3.81808e-16 -2.1684e-18 0)
(-3.71637e-16 -4.33679e-18 0)
(-8.73696e-18 0 0)
(3.11264e-16 -2.1684e-18 0)
(7.24198e-17 0 0)
(2.09447e-25 0 0)
(-5.66084e-21 4.77047e-17 0)
(4.96466e-24 0 0)
(4.62948e-18 -2.1684e-18 0)
(6.21221e-17 3.68627e-17 0)
(2.86978e-16 0 0)
(6.95631e-18 1.40946e-16 0)
(-2.30033e-16 4.11995e-17 0)
(-2.11285e-16 0 0)
(1.31939e-16 1.32272e-16 0)
(2.78735e-12 -7.61107e-16 0)
(1.97865e-08 -8.71695e-16 0)
(1.24126e-05 3.81208e-15 0)
(0.000984539 -2.4111e-15 0)
(0.0152674 2.07378e-15 0)
(0.0762805 -2.02566e-16 0)
(0.194538 1.25272e-15 0)
(0.350426 -6.07819e-16 0)
(0.515 -1.90971e-17 0)
(0.707968 -1.78515e-15 0)
(0.900941 -1.06226e-15 0)
(0.960633 6.86431e-17 0)
(0.93501 1.82225e-15 0)
(0.944003 1.92152e-15 0)
(0.937125 1.34611e-15 0)
(0.787316 -1.01765e-15 0)
(0.386496 -2.46653e-15 0)
(0.0391646 1.05847e-15 0)
(0.00038222 -7.68436e-16 0)
(2.66715e-07 2.05998e-17 0)
(1.04572e-11 6.28835e-17 0)
(1.67672e-16 1.2902e-16 0)
(3.24057e-18 2.41776e-16 0)
(1.05481e-16 1.61546e-16 0)
(9.53883e-19 6.07151e-17 0)
(-1.18121e-16 1.78893e-16 0)
(-9.54036e-17 2.37439e-16 0)
(1.26979e-17 1.31188e-16 0)
(1.22896e-16 2.33103e-16 0)
(6.73173e-17 2.28766e-16 0)
(-6.22142e-17 1.02999e-16 0)
(-1.65548e-16 2.03829e-16 0)
(-2.81848e-17 1.94071e-16 0)
(1.34196e-17 9.43252e-17 0)
(6.06952e-17 2.01661e-16 0)
(2.37975e-18 2.32018e-16 0)
(2.12816e-17 2.41776e-16 0)
(-1.8279e-17 1.02999e-16 0)
(-1.58963e-16 8.67359e-17 0)
(-2.42465e-17 2.20092e-16 0)
(4.59451e-17 2.37439e-16 0)
(1.70252e-16 1.12757e-16 0)
(1.16659e-16 2.53702e-16 0)
(-6.11383e-17 2.45029e-16 0)
(-1.03014e-16 4.01153e-17 0)
(-6.38398e-18 -8.34833e-17 0)
(5.04699e-17 4.11995e-17 0)
(-4.07056e-17 1.13841e-16 0)
(-5.00526e-17 9.75778e-18 0)
(-1.55036e-17 1.11672e-16 0)
(5.26201e-18 9.75778e-18 0)
(2.76065e-17 7.26413e-17 0)
(-1.3325e-16 1.78893e-16 0)
(-1.58059e-16 2.76471e-16 0)
(-1.16899e-17 1.9624e-16 0)
(-1.09801e-17 5.42099e-17 0)
(1.00638e-16 0 0)
(-3.158e-17 1.32272e-16 0)
(-1.11485e-16 1.86482e-16 0)
(-2.52618e-16 1.4203e-16 0)
(-2.1684e-18 2.1684e-18 0)
(1.82302e-16 2.1684e-18 0)
(4.76435e-16 2.1684e-18 0)
(1.38016e-16 1.60461e-16 0)
(-3.08534e-16 -4.55363e-17 0)
(-3.53915e-16 -3.53449e-16 0)
(-9.84472e-17 -9.75778e-17 0)
(1.69692e-20 2.1684e-18 0)
(-3.32211e-22 0 0)
(4.82904e-17 -2.1684e-18 0)
(2.49727e-16 -6.50519e-17 0)
(6.83311e-17 1.14925e-16 0)
(2.48278e-16 0 0)
(6.7484e-17 5.42099e-17 0)
(1.65973e-16 -4.33679e-17 0)
(-6.45679e-19 9.10727e-17 0)
(-2.04685e-16 2.1684e-18 0)
(8.61099e-18 2.1684e-18 0)
(-3.85246e-17 -1.0842e-17 0)
(-2.58065e-16 0 0)
(4.28886e-17 0 0)
(2.43672e-16 2.53702e-16 0)
(-5.66121e-20 3.46943e-17 0)
(-5.11092e-17 -7.15571e-17 0)
(1.14166e-21 -3.23091e-16 0)
(-1.48495e-16 -1.27935e-16 0)
(-1.53306e-16 -1.06251e-16 0)
(5.34935e-17 0 0)
(7.27983e-17 2.1684e-18 0)
(2.43819e-25 0 0)
(-2.09089e-22 0 0)
(-1.85284e-19 0 0)
(2.40847e-21 0 0)
(3.13699e-17 2.1684e-18 0)
(1.78037e-16 0 0)
(9.21133e-17 9.32411e-17 0)
(-9.15907e-17 -9.32411e-17 0)
(-1.24519e-16 2.1684e-18 0)
(-3.25363e-16 0 0)
(8.12121e-17 0 0)
(2.78636e-12 5.20415e-17 0)
(1.97865e-08 -1.30754e-15 0)
(1.24126e-05 8.84932e-15 0)
(0.000984539 -7.0879e-15 0)
(0.0152674 9.96468e-15 0)
(0.0762805 -6.20894e-15 0)
(0.194538 -3.22166e-16 0)
(0.350426 6.00479e-16 0)
(0.515 -2.38714e-15 0)
(0.707968 -9.68146e-16 0)
(0.900941 -1.65299e-15 0)
(0.960633 -2.37025e-15 0)
(0.93501 -5.67987e-16 0)
(0.944003 -2.68423e-15 0)
(0.937125 -9.1911e-17 0)
(0.787316 -5.57151e-17 0)
(0.386496 -3.42974e-15 0)
(0.0391646 8.01412e-15 0)
(0.00038222 -3.74897e-15 0)
(2.66715e-07 1.25984e-15 0)
(1.04576e-11 1.18178e-16 0)
(3.67333e-16 2.81892e-17 0)
(1.33243e-17 1.02999e-16 0)
(-7.18859e-17 -1.73472e-17 0)
(-1.38463e-24 0 0)
(5.2126e-17 -1.84314e-17 0)
(-4.99961e-17 8.45675e-17 0)
(2.52675e-17 1.26851e-16 0)
(1.57166e-16 5.31257e-17 0)
(3.36819e-17 6.17993e-17 0)
(3.02385e-19 -2.1684e-18 0)
(-5.56248e-17 1.01915e-16 0)
(-3.77526e-18 2.27682e-17 0)
(4.06786e-17 1.23599e-16 0)
(-3.55025e-17 1.30104e-16 0)
(1.2521e-17 3.90311e-17 0)
(8.3932e-17 1.40946e-16 0)
(8.64959e-18 3.90311e-17 0)
(-3.47171e-17 9.64936e-17 0)
(3.31439e-17 2.35271e-16 0)
(-7.78217e-19 2.72134e-16 0)
(5.85102e-17 2.25513e-16 0)
(-1.76591e-18 1.04083e-16 0)
(-2.61327e-17 9.32411e-17 0)
(-1.35778e-16 1.46367e-16 0)
(-2.88172e-17 8.89043e-17 0)
(3.4693e-17 1.90819e-16 0)
(-7.67694e-17 8.45675e-17 0)
(-1.35208e-16 1.24683e-16 0)
(-8.39858e-17 -3.36101e-17 0)
(9.84165e-18 -9.43252e-17 0)
(1.66516e-16 -7.37255e-17 0)
(8.28194e-17 -4.01153e-17 0)
(5.65492e-17 1.68051e-16 0)
(1.89e-17 2.73218e-16 0)
(-4.04323e-17 2.48281e-16 0)
(-5.44498e-17 6.72203e-17 0)
(-9.01783e-17 -1.19262e-16 0)
(-1.977e-16 -1.30104e-17 0)
(-3.14417e-16 -1.19262e-16 0)
(0 0 0)
(8.65044e-17 0 0)
(3.34973e-16 0 0)
(1.63002e-17 -1.60461e-16 0)
(-3.67084e-16 -4.14164e-16 0)
(-9.85787e-17 -1.49619e-16 0)
(-1.27218e-18 0 0)
(8.02842e-20 0 0)
(-9.68252e-20 0 0)
(1.16356e-16 2.1684e-18 0)
(3.64634e-16 1.27935e-16 0)
(1.25542e-16 2.7105e-16 0)
(-1.25647e-16 1.30104e-17 0)
(5.08026e-17 -2.34187e-16 0)
(2.35554e-16 -6.50519e-17 0)
(-1.48453e-17 -9.32411e-17 0)
(-3.24774e-16 0 0)
(-5.20698e-17 -9.97462e-17 0)
(-8.21466e-20 -3.75133e-16 0)
(-5.23371e-17 -1.34441e-16 0)
(1.82407e-16 0 0)
(1.02042e-17 1.95156e-17 0)
(-2.29319e-16 -2.23345e-16 0)
(-4.54589e-17 -4.11995e-17 0)
(4.39049e-21 -8.23991e-17 0)
(-1.15815e-24 0 0)
(-2.42229e-23 1.10588e-16 0)
(7.12813e-23 0 0)
(1.29918e-20 0 0)
(-7.6004e-25 0 0)
(-6.44524e-20 0 0)
(-9.19087e-18 0 0)
(1.72903e-19 0 0)
(8.59201e-17 0 0)
(3.32015e-16 0 0)
(4.4358e-18 -6.93887e-17 0)
(-2.76681e-16 0 0)
(-8.98621e-17 0 0)
(-8.33428e-17 0 0)
(1.59232e-16 0 0)
(2.78776e-12 7.9797e-16 0)
(1.97865e-08 -2.76254e-15 0)
(1.24126e-05 4.85943e-15 0)
(0.000984539 -7.05752e-15 0)
(0.0152674 1.12388e-14 0)
(0.0762805 -9.09233e-15 0)
(0.194538 4.51802e-16 0)
(0.350426 1.46963e-15 0)
(0.515 -6.04164e-16 0)
(0.707968 8.67042e-16 0)
(0.900941 -1.96828e-15 0)
(0.960633 -2.85933e-15 0)
(0.93501 -2.68063e-15 0)
(0.944003 -3.22344e-15 0)
(0.937125 -9.48311e-16 0)
(0.787316 6.08886e-16 0)
(0.386496 -5.62863e-15 0)
(0.0391646 7.48068e-15 0)
(0.00038222 -4.63663e-15 0)
(2.66715e-07 1.47451e-16 0)
(1.0457e-11 3.06828e-16 0)
(2.87019e-16 0 0)
(-1.25624e-16 -2.49366e-17 0)
(-2.30096e-17 -1.26851e-16 0)
(5.4289e-23 -2.49366e-17 0)
(8.20973e-18 -1.26851e-16 0)
(3.95097e-17 -2.49366e-17 0)
(-6.37528e-17 -9.75778e-18 0)
(3.78689e-17 -1.12757e-16 0)
(1.18363e-16 -1.19262e-17 0)
(2.84409e-18 0 0)
(-1.14598e-16 -1.19262e-17 0)
(-1.69427e-17 -1.12757e-16 0)
(5.39499e-17 -9.75778e-18 0)
(-4.97122e-17 -2.49366e-17 0)
(5.26161e-17 -1.27935e-16 0)
(1.54738e-16 -2.7105e-17 0)
(3.46727e-17 0 0)
(3.90784e-18 -2.81892e-17 0)
(7.57376e-17 7.48097e-17 0)
(-2.46341e-18 1.06251e-16 0)
(6.89036e-21 7.69781e-17 0)
(-1.32519e-17 0 0)
(-8.81312e-17 0 0)
(-1.90363e-17 2.49366e-17 0)
(1.12862e-16 1.61546e-16 0)
(2.52439e-18 5.63783e-17 0)
(-1.109e-16 0 0)
(-2.66435e-16 5.74625e-17 0)
(-2.00733e-16 -5.63783e-17 0)
(-6.66605e-17 8.67359e-18 0)
(6.19521e-17 -1.78893e-16 0)
(2.46808e-16 -2.02745e-16 0)
(2.52627e-16 -2.7105e-17 0)
(4.15432e-17 1.05167e-16 0)
(-1.04704e-16 7.91465e-17 0)
(-2.14399e-16 -8.89043e-17 0)
(-1.80199e-16 -2.72134e-16 0)
(-7.78148e-17 -1.72388e-16 0)
(-1.47451e-16 -2.66713e-16 0)
(0 0 0)
(1.93563e-18 0 0)
(7.70939e-17 -1.56125e-16 0)
(-2.07387e-17 -4.16332e-16 0)
(-1.00018e-16 -1.56125e-16 0)
(-6.15751e-19 0 0)
(2.7889e-18 0 0)
(2.49295e-18 0 0)
(-4.31353e-18 0 0)
(1.04964e-16 0 0)
(3.63942e-16 0 0)
(-2.03641e-18 6.07151e-17 0)
(-3.62415e-16 0 0)
(-8.99228e-17 -5.20415e-17 0)
(6.06905e-17 0 0)
(1.09468e-17 -9.32411e-17 0)
(-1.44217e-16 0 0)
(-3.7312e-18 0 0)
(-5.20171e-19 -1.14925e-16 0)
(-5.39415e-19 0 0)
(4.40242e-17 0 0)
(-1.6074e-18 -9.32411e-17 0)
(-7.62813e-17 -4.55363e-17 0)
(-9.36984e-19 0 0)
(2.5068e-20 0 0)
(-1.82686e-21 0 0)
(-1.72333e-22 0 0)
(2.24983e-20 0 0)
(-4.20567e-20 0 0)
(-4.87566e-22 0 0)
(-2.69681e-18 0 0)
(-8.08207e-17 0 0)
(2.31166e-18 -9.10727e-17 0)
(9.68065e-17 0 0)
(1.23736e-16 -1.14925e-16 0)
(-6.62941e-18 -3.57785e-16 0)
(-7.92907e-17 -1.12757e-16 0)
(-4.48399e-19 0 0)
(-4.42272e-18 0 0)
(1.56115e-16 0 0)
(2.78804e-12 1.66967e-16 0)
(1.97865e-08 -5.39931e-16 0)
(1.24126e-05 2.03831e-16 0)
(0.000984539 -1.70795e-15 0)
(0.0152674 6.81886e-15 0)
(0.0762805 -2.89149e-15 0)
(0.194538 2.94185e-15 0)
(0.350426 9.39624e-16 0)
(0.515 -2.13541e-16 0)
(0.707968 -8.18022e-16 0)
(0.900941 1.00924e-15 0)
(0.960633 1.02587e-15 0)
(0.93501 -7.18132e-16 0)
(0.944003 -1.27456e-15 0)
(0.937125 2.38873e-16 0)
(0.787316 1.13704e-16 0)
(0.386496 -1.72289e-15 0)
(0.0391646 3.51563e-15 0)
(0.00038222 -7.51095e-16 0)
(2.66715e-07 -5.72457e-16 0)
(1.04569e-11 7.91465e-17 0)
(3.90934e-16 0 0)
(-1.33817e-16 0 0)
(-1.9666e-17 -2.49366e-17 0)
(-1.10461e-21 -4.66205e-17 0)
(2.42046e-17 -2.49366e-17 0)
(7.57191e-18 0 0)
(-9.57907e-17 -5.20415e-17 0)
(8.76757e-17 -1.0842e-17 0)
(1.99882e-16 0 0)
(5.45766e-18 6.39677e-17 0)
(-1.84824e-16 0 0)
(-2.90571e-17 -1.19262e-17 0)
(6.4284e-17 -4.77047e-17 0)
(-3.82987e-17 0 0)
(2.12054e-17 -2.27682e-17 0)
(1.34262e-16 0 0)
(-8.57094e-18 0 0)
(2.87508e-17 0 0)
(1.58314e-16 0 0)
(3.17558e-17 0 0)
(-1.52984e-19 0 0)
(-3.81647e-17 0 0)
(-1.69101e-16 0 0)
(3.73412e-18 0 0)
(1.93141e-16 4.55363e-17 0)
(2.16611e-17 0 0)
(-1.01888e-16 0 0)
(-2.76509e-16 0 0)
(-1.3806e-16 0 0)
(-5.96114e-17 -1.51788e-17 0)
(-2.17876e-17 -7.15571e-17 0)
(1.83229e-16 -7.69781e-17 0)
(2.87396e-16 0 0)
(5.70473e-17 0 0)
(-2.28634e-16 0 0)
(-2.98522e-16 4.66205e-17 0)
(-1.53329e-16 -8.56517e-17 0)
(3.3626e-19 -4.33679e-17 0)
(0 -1.11672e-16 0)
(0 1.19262e-16 0)
(1.681e-17 0 0)
(-9.2416e-18 0 0)
(-3.06748e-17 -1.77809e-16 0)
(-9.98361e-18 0 0)
(1.39954e-18 0 0)
(4.70848e-17 0 0)
(1.89643e-17 7.15571e-17 0)
(-4.35312e-17 0 0)
(1.06609e-16 -2.1684e-18 0)
(3.84008e-16 0 0)
(1.66261e-17 0 0)
(-3.52491e-16 0 0)
(-6.10501e-17 -4.98731e-17 0)
(1.30054e-16 0 0)
(1.64961e-17 9.32411e-17 0)
(-1.59184e-16 2.81892e-17 0)
(-4.35373e-17 0 0)
(-5.96415e-18 0 0)
(1.12266e-18 0 0)
(1.34453e-16 0 0)
(-7.12853e-19 9.32411e-17 0)
(-1.43413e-16 0 0)
(-1.02458e-17 0 0)
(1.80007e-19 0 0)
(-3.91325e-19 0 0)
(-7.18705e-20 0 0)
(6.83692e-19 0 0)
(-2.60591e-18 0 0)
(-5.66495e-20 0 0)
(-2.30945e-17 0 0)
(-1.74927e-16 -1.56125e-16 0)
(9.16142e-18 -3.3827e-16 0)
(1.96574e-16 -1.56125e-16 0)
(2.57613e-17 0 0)
(-1.75214e-17 -1.01915e-16 0)
(6.76708e-18 0 0)
(-7.66648e-18 0 0)
(1.23339e-17 0 0)
(2.23779e-16 0 0)
(2.78812e-12 1.06251e-16 0)
(1.97865e-08 -6.44014e-16 0)
(1.24126e-05 8.41347e-16 0)
(0.000984539 -2.47404e-16 0)
(0.0152674 -2.18801e-15 0)
(0.0762805 1.94348e-15 0)
(0.194538 1.78924e-15 0)
(0.350426 -5.15325e-16 0)
(0.515 9.39231e-16 0)
(0.707968 8.48659e-16 0)
(0.900941 1.8522e-15 0)
(0.960633 1.97349e-15 0)
(0.93501 5.98748e-16 0)
(0.944003 1.6416e-17 0)
(0.937125 1.04357e-16 0)
(0.787316 -9.20436e-16 0)
(0.386496 6.58703e-16 0)
(0.0391646 -5.51286e-16 0)
(0.00038222 -6.94736e-16 0)
(2.66715e-07 1.0842e-16 0)
(1.04568e-11 -1.34441e-16 0)
(2.81743e-16 0 0)
(-1.81038e-16 -6.83045e-17 0)
(-8.58015e-17 -4.33679e-17 0)
(-8.49708e-21 -1.64798e-16 0)
(9.08321e-17 -5.85467e-17 0)
(3.33003e-17 0 0)
(-1.16616e-16 5.20415e-17 0)
(6.88824e-17 0 0)
(2.0931e-16 -6.72203e-17 0)
(6.24577e-18 -6.39677e-17 0)
(-1.98303e-16 -7.04729e-17 0)
(-4.26985e-17 -3.79469e-17 0)
(7.67867e-17 -1.81061e-16 0)
(-2.57967e-17 -7.80623e-17 0)
(7.02907e-17 0 0)
(2.03249e-16 -7.69781e-17 0)
(6.11062e-17 -3.14417e-17 0)
(-1.76091e-18 1.05167e-16 0)
(-4.81227e-18 -1.19262e-17 0)
(-8.56392e-19 -1.05167e-16 0)
(2.33862e-18 -7.58939e-17 0)
(3.90159e-17 -6.50519e-17 0)
(-2.61093e-17 0 0)
(9.90449e-18 5.85467e-17 0)
(8.5032e-17 0 0)
(1.66209e-18 0 0)
(-9.74593e-17 0 0)
(-2.64337e-16 0 0)
(-2.64713e-16 2.1684e-18 0)
(-1.36497e-16 -1.26851e-16 0)
(5.88809e-17 -1.0842e-18 0)
(2.59183e-16 0 0)
(2.54235e-16 0 0)
(8.92315e-17 -8.34833e-17 0)
(-7.94208e-17 3.36101e-17 0)
(-2.62379e-16 2.14671e-16 0)
(-2.56971e-16 8.78201e-17 0)
(-9.19511e-17 6.07151e-17 0)
(-3.36101e-17 5.09573e-17 0)
(2.23345e-16 3.46943e-16 0)
(4.43807e-17 1.25767e-16 0)
(-4.90875e-17 1.14925e-16 0)
(-1.82101e-16 -1.12757e-16 0)
(-3.56876e-17 2.1684e-18 0)
(2.83082e-17 0 0)
(2.05635e-16 1.25767e-16 0)
(3.35675e-17 3.07912e-16 0)
(-1.38571e-16 1.25767e-16 0)
(1.28727e-16 1.01915e-16 0)
(2.59687e-16 1.2143e-16 0)
(1.69514e-17 -1.2143e-16 0)
(-2.06638e-16 -4.98731e-17 0)
(-1.10936e-17 -2.36355e-16 0)
(1.85878e-16 -4.33679e-17 0)
(3.91533e-17 -1.51788e-17 0)
(-2.10991e-16 2.34187e-16 0)
(-2.05698e-16 2.60208e-17 0)
(-5.07586e-17 0 0)
(1.8349e-17 0 0)
(2.39923e-16 0 0)
(1.22874e-17 -1.0842e-17 0)
(-2.4061e-16 0 0)
(-3.04797e-17 0 0)
(1.50483e-18 0 0)
(-1.40206e-17 0 0)
(-4.4742e-18 0 0)
(2.79003e-18 0 0)
(-3.40186e-17 0 0)
(-1.64128e-18 0 0)
(-5.77022e-17 0 0)
(-2.84694e-16 0 0)
(3.02174e-17 3.03576e-17 0)
(3.1784e-16 0 0)
(5.60531e-17 0 0)
(-5.97984e-17 0 0)
(7.56659e-17 0 0)
(-3.70646e-17 0 0)
(5.95765e-17 -8.67359e-18 0)
(3.18028e-16 1.04083e-16 0)
(2.78825e-12 2.77555e-16 0)
(1.97865e-08 -3.53449e-16 0)
(1.24126e-05 1.97109e-15 0)
(0.000984539 -6.51063e-17 0)
(0.0152674 -9.61099e-15 0)
(0.0762805 5.5399e-15 0)
(0.194538 6.67435e-17 0)
(0.350426 -1.06001e-15 0)
(0.515 1.24652e-15 0)
(0.707968 2.62359e-15 0)
(0.900941 1.38099e-15 0)
(0.960633 1.50603e-15 0)
(0.93501 7.85148e-16 0)
(0.944003 1.76325e-15 0)
(0.937125 -4.10249e-16 0)
(0.787316 -2.92959e-15 0)
(0.386496 1.98092e-15 0)
(0.0391646 -2.96329e-15 0)
(0.00038222 -1.46317e-15 0)
(2.66715e-07 8.02307e-16 0)
(1.04572e-11 -6.65698e-16 0)
(3.84935e-16 -6.39677e-17 0)
(-1.29992e-16 -2.04913e-16 0)
(-1.86457e-16 -8.67359e-17 0)
(-4.35787e-20 -6.50519e-17 0)
(1.85122e-16 0 0)
(1.09173e-16 -6.28835e-17 0)
(-2.62147e-18 4.77047e-17 0)
(-4.19786e-17 -6.07151e-17 0)
(8.48139e-17 -1.91903e-16 0)
(-4.37511e-19 -9.43252e-17 0)
(-7.31356e-17 -1.97324e-16 0)
(-4.82398e-17 -5.85467e-17 0)
(9.07271e-17 -3.36101e-17 0)
(-1.17923e-17 0 0)
(2.59057e-18 -6.83045e-17 0)
(1.3661e-16 -2.03829e-16 0)
(1.20108e-16 -1.71303e-16 0)
(-2.0129e-18 -4.77047e-17 0)
(-9.41966e-17 -1.69135e-16 0)
(-3.89927e-18 -2.73218e-16 0)
(1.09465e-17 -2.27682e-16 0)
(9.23123e-17 -2.21176e-16 0)
(3.17992e-17 -9.32411e-17 0)
(2.23996e-17 -5.85467e-17 0)
(7.72148e-17 0 0)
(-6.01688e-18 0 0)
(-3.17768e-17 -5.85467e-17 0)
(-2.11052e-16 0 0)
(-2.95625e-16 1.40946e-16 0)
(-1.14582e-16 5.31257e-17 0)
(3.12321e-17 0 0)
(1.90141e-16 8.99885e-17 0)
(2.05283e-16 -8.99885e-17 0)
(6.90964e-17 -2.37439e-16 0)
(4.36641e-17 -5.74625e-17 0)
(-1.84922e-16 5.09573e-17 0)
(-2.04561e-16 2.27682e-16 0)
(-1.02513e-16 2.2985e-16 0)
(-1.98408e-16 2.14671e-16 0)
(4.0549e-16 1.64798e-16 0)
(9.299e-17 1.04083e-16 0)
(-1.26123e-16 0 0)
(-3.2436e-16 1.30104e-16 0)
(-5.67626e-17 -2.1684e-18 0)
(1.50181e-16 1.01915e-16 0)
(4.18367e-16 1.58293e-16 0)
(5.35836e-17 1.25767e-16 0)
(-3.224e-16 1.71303e-16 0)
(2.25508e-16 3.5128e-16 0)
(-7.47959e-17 4.55363e-17 0)
(-2.03019e-16 -2.25513e-16 0)
(-1.25817e-16 4.81481e-34 0)
(-1.03117e-16 4.77047e-17 0)
(1.85079e-16 -2.1684e-18 0)
(2.72132e-16 -2.51534e-16 0)
(-2.6459e-17 5.20415e-17 0)
(-3.77656e-16 1.90819e-16 0)
(-1.23919e-16 2.38524e-17 0)
(7.94457e-17 1.2143e-16 0)
(-1.10579e-16 2.1684e-18 0)
(-8.16334e-17 -2.58039e-16 0)
(8.34646e-17 -1.95156e-17 0)
(1.93375e-16 1.2143e-16 0)
(9.54277e-18 1.14925e-16 0)
(-1.16988e-16 2.38524e-17 0)
(-5.47849e-17 0 0)
(1.8333e-18 0 0)
(-1.39163e-16 2.60208e-17 0)
(-1.6216e-17 -4.33679e-18 0)
(1.05331e-16 0 0)
(-8.07917e-17 1.95156e-16 0)
(8.72485e-17 3.96817e-16 0)
(3.64417e-17 1.2143e-16 0)
(-1.29301e-16 0 0)
(-6.43037e-17 -1.10588e-16 0)
(1.19899e-16 0 0)
(-6.32838e-17 -2.1684e-18 0)
(6.33962e-17 -2.01661e-16 0)
(4.12556e-16 -1.0842e-17 0)
(2.78842e-12 -1.0842e-17 0)
(1.97865e-08 -1.0842e-17 0)
(1.24126e-05 -4.59705e-16 0)
(0.000984539 5.01318e-16 0)
(0.0152674 -9.57584e-15 0)
(0.0762805 7.23798e-15 0)
(0.194538 -2.2205e-15 0)
(0.350426 6.3131e-16 0)
(0.515 -1.7361e-17 0)
(0.707968 -3.47225e-16 0)
(0.900941 2.28137e-15 0)
(0.960633 2.14269e-15 0)
(0.93501 1.98045e-15 0)
(0.944003 1.69338e-15 0)
(0.937125 1.85545e-15 0)
(0.787316 -1.80676e-15 0)
(0.386496 3.1661e-15 0)
(0.0391646 -4.98677e-15 0)
(0.00038222 -9.86286e-17 0)
(2.66715e-07 3.44775e-16 0)
(1.04579e-11 7.80623e-17 0)
(2.04658e-16 0 0)
(-1.80557e-16 -1.07336e-16 0)
(-7.56651e-17 -2.1684e-18 0)
(-1.8586e-18 -7.04729e-17 0)
(5.67283e-17 -4.87889e-17 0)
(1.75247e-16 -1.64798e-16 0)
(7.26237e-17 -1.11672e-16 0)
(-8.05086e-17 4.22837e-17 0)
(2.28879e-17 -5.52941e-17 0)
(-7.20715e-19 -6.50519e-18 0)
(-3.3565e-17 -1.0842e-16 0)
(7.01277e-17 -5.42099e-18 0)
(2.88452e-17 3.79469e-17 0)
(-7.71485e-17 -6.50519e-17 0)
(-1.02455e-16 3.68627e-17 0)
(4.00244e-17 -8.23991e-17 0)
(1.582e-16 -5.20415e-17 0)
(-5.91633e-18 0 0)
(-1.50562e-16 -1.38777e-16 0)
(-9.44046e-18 -1.25767e-16 0)
(3.9763e-17 -7.48097e-17 0)
(1.68524e-16 -1.09504e-16 0)
(7.55456e-17 -2.10334e-16 0)
(1.0326e-16 -6.50519e-17 0)
(1.11947e-16 0 0)
(-1.89216e-17 -7.37255e-17 0)
(8.11527e-18 -2.08166e-16 0)
(6.06001e-18 -1.0842e-17 0)
(-1.84533e-16 1.76724e-16 0)
(-1.72268e-16 2.41776e-16 0)
(-1.29628e-17 8.34833e-17 0)
(7.61426e-17 0 0)
(5.8982e-17 -8.67359e-17 0)
(1.86552e-16 -1.82145e-16 0)
(1.67733e-16 -6.93887e-17 0)
(-9.08614e-18 -7.69781e-17 0)
(-1.03085e-16 9.32411e-17 0)
(-1.61367e-16 8.78201e-17 0)
(-3.0466e-16 1.0842e-16 0)
(2.90565e-16 4.11995e-17 0)
(5.75872e-17 2.79723e-16 0)
(-1.90678e-16 1.77809e-16 0)
(-1.17256e-16 3.59954e-16 0)
(6.81317e-17 1.84314e-16 0)
(2.6012e-16 3.70796e-16 0)
(2.35318e-16 3.40438e-16 0)
(-3.60379e-18 1.23599e-16 0)
(-1.38485e-16 1.97324e-16 0)
(-1.10894e-16 1.51788e-17 0)
(-2.19447e-16 -2.60208e-16 0)
(1.26905e-18 -4.33679e-17 0)
(-1.71397e-16 2.12503e-16 0)
(-4.08269e-17 3.72964e-16 0)
(1.90819e-16 1.45283e-16 0)
(8.9483e-17 -6.93887e-17 0)
(4.5224e-17 1.23599e-16 0)
(-2.20874e-16 3.90311e-16 0)
(-3.79954e-17 2.08166e-16 0)
(1.10185e-16 3.90311e-16 0)
(-1.32526e-16 2.1684e-16 0)
(-1.30433e-16 6.28835e-17 0)
(1.12038e-16 1.34441e-16 0)
(3.75783e-16 4.20669e-16 0)
(2.8334e-17 3.77301e-16 0)
(-2.65771e-16 2.27682e-16 0)
(-1.7805e-16 2.81892e-17 0)
(-1.01854e-17 6.50519e-17 0)
(-1.94862e-16 2.45029e-16 0)
(-8.58437e-17 4.33679e-18 0)
(1.76743e-16 0 0)
(7.70657e-17 0 0)
(1.68255e-16 1.51788e-16 0)
(-4.27184e-17 3.59954e-16 0)
(-2.33504e-16 1.77809e-16 0)
(6.70235e-18 1.0842e-16 0)
(1.0163e-16 2.1684e-18 0)
(-8.67379e-17 1.82145e-16 0)
(-1.1006e-16 -3.68627e-17 0)
(3.99687e-16 -1.34441e-16 0)
(2.78819e-12 -4.42353e-16 0)
(1.97865e-08 4.25006e-16 0)
(1.24126e-05 -5.31913e-15 0)
(0.000984539 1.03519e-15 0)
(0.0152674 -4.91863e-15 0)
(0.0762805 2.49099e-15 0)
(0.194538 -4.07007e-15 0)
(0.350426 1.02625e-15 0)
(0.515 7.4826e-16 0)
(0.707968 3.80927e-16 0)
(0.900941 1.91714e-15 0)
(0.960633 1.065e-15 0)
(0.93501 7.82218e-16 0)
(0.944003 -1.02116e-15 0)
(0.937125 5.89762e-16 0)
(0.787316 -8.23787e-16 0)
(0.386496 -2.82072e-16 0)
(0.0391646 -3.46732e-15 0)
(0.00038222 2.75293e-15 0)
(2.66715e-07 -9.87704e-16 0)
(1.0457e-11 7.66528e-16 0)
(2.23891e-16 7.58939e-17 0)
(-1.11168e-16 1.09504e-16 0)
(-1.20892e-16 -2.38524e-17 0)
(-6.1177e-18 -1.77809e-16 0)
(8.75123e-17 -5.52941e-17 0)
(6.29238e-17 4.33679e-18 0)
(1.65313e-16 -9.75778e-17 0)
(3.32239e-17 0 0)
(-1.39366e-16 1.12757e-16 0)
(-3.80753e-17 1.0842e-17 0)
(-7.16147e-18 1.10588e-16 0)
(9.57558e-17 9.75778e-18 0)
(2.05951e-17 -6.39677e-17 0)
(-9.14438e-17 2.92734e-17 0)
(2.58605e-18 1.43114e-16 0)
(1.28753e-16 8.23991e-17 0)
(8.1546e-17 0 0)
(-6.99108e-17 -8.89043e-17 0)
(-7.47497e-17 4.77047e-17 0)
(6.37683e-17 1.13841e-16 0)
(-2.10256e-27 1.19262e-17 0)
(1.031e-17 6.17993e-17 0)
(1.2889e-16 -5.42099e-17 0)
(2.16841e-16 0 0)
(2.52586e-17 0 0)
(-1.48947e-16 -1.22514e-16 0)
(2.02122e-17 -2.7105e-17 0)
(1.57471e-16 0 0)
(-2.35602e-17 -1.73472e-17 0)
(-1.80064e-16 1.38777e-16 0)
(-1.06681e-16 0 0)
(5.40131e-17 0 0)
(6.16243e-17 8.67359e-17 0)
(1.63747e-16 5.74625e-17 0)
(1.00383e-16 -1.16009e-16 0)
(-1.06417e-16 -1.78893e-16 0)
(-1.95145e-16 -4.22837e-17 0)
(-1.0384e-16 0 0)
(-2.05998e-16 4.33679e-18 0)
(4.74879e-16 -1.43114e-16 0)
(1.07246e-16 -8.67359e-17 0)
(-2.62741e-16 -8.45675e-17 0)
(-1.54046e-16 1.17093e-16 0)
(1.52389e-16 2.1684e-18 0)
(3.4657e-16 9.75778e-17 0)
(6.22924e-17 -2.38524e-17 0)
(-7.37732e-17 -1.49619e-16 0)
(-3.40596e-16 -1.32272e-16 0)
(-3.48189e-16 -3.18754e-16 0)
(-1.69877e-17 -6.07151e-17 0)
(2.29147e-16 2.66713e-16 0)
(6.42811e-18 4.77047e-17 0)
(-2.24084e-16 1.8865e-16 0)
(-2.64319e-17 -4.33679e-18 0)
(2.73595e-16 2.1684e-18 0)
(1.42928e-16 -9.32411e-17 0)
(-9.06963e-17 2.81892e-17 0)
(4.46954e-19 2.1684e-18 0)
(5.22983e-17 3.46943e-17 0)
(-1.33578e-16 -7.58939e-17 0)
(-1.50864e-16 4.33679e-18 0)
(1.40959e-16 2.1684e-18 0)
(3.19167e-16 8.02307e-17 0)
(-5.78164e-17 8.67359e-18 0)
(-4.59661e-16 -2.1684e-18 0)
(-2.27041e-16 0 0)
(1.71483e-16 0 0)
(-2.2643e-17 -2.1684e-18 0)
(-3.09752e-16 -1.19262e-16 0)
(-7.28471e-18 0 0)
(1.66116e-16 0 0)
(4.57222e-16 0 0)
(8.36754e-17 1.95156e-17 0)
(-2.88137e-16 0 0)
(-5.76023e-18 1.47451e-16 0)
(2.76117e-16 0 0)
(-7.06673e-17 -4.33679e-18 0)
(-3.67023e-16 2.7105e-16 0)
(2.52192e-16 -2.60208e-17 0)
(2.78762e-12 -2.38524e-16 0)
(1.97865e-08 3.14851e-15 0)
(1.24126e-05 -6.17349e-15 0)
(0.000984539 3.25097e-15 0)
(0.0152674 -8.72129e-16 0)
(0.0762805 -1.68535e-15 0)
(0.194538 -3.20625e-15 0)
(0.350426 5.87265e-17 0)