/*--------------------------------*- C++ -*----------------------------------*\
| =========                 |                                                 |
| \\      /  F ield         | OpenFOAM: The Open Source CFD Toolbox           |
|  \\    /   O peration     | Version:  4.1                                   |
|   \\  /    A nd           | Web:      www.OpenFOAM.org                      |
|    \\/     M anipulation  |                                                 |
\*---------------------------------------------------------------------------*/
FoamFile
{
    version     2.0;
    format      ascii;
    class       volVectorField;
    location    "0.38";
    object      U;
}
// * * * * * * * * * * * * * * * * * * * * * * * * * * * * * * * * * * * * * //

dimensions      [0 1 -1 0 0 0 0];

internalField   nonuniform List<vector> 
10000
(
(0 0 0)
(1.85509e-16 0 0)
(3.08153e-16 0 0)
(1.01424e-16 1.56125e-16 0)
(-1.21739e-16 0 0)
(-3.0267e-16 0 0)
(-2.75901e-16 0 0)
(-4.97785e-17 0 0)
(-1.41058e-20 0 0)
(2.49974e-16 1.51788e-16 0)
(5.15937e-16 0 0)
(1.79661e-16 -1.56125e-16 0)
(-1.97907e-16 0 0)
(5.71733e-17 0 0)
(1.64424e-16 0 0)
(-5.00336e-17 1.34441e-16 0)
(-2.62196e-16 0 0)
(-1.53711e-16 0 0)
(-5.14658e-17 0 0)
(-2.07123e-16 0 0)
(4.52561e-16 1.30104e-17 0)
(9.7758e-12 1.18828e-15 0)
(2.40397e-08 -4.16332e-16 0)
(6.84962e-06 3.78821e-15 0)
(0.00032135 4.52884e-15 0)
(0.00373331 -6.40396e-15 0)
(0.0165305 -1.53622e-14 0)
(0.0407116 1.15378e-14 0)
(0.0724376 -4.66812e-15 0)
(0.107952 2.24941e-15 0)
(0.145355 2.07414e-14 0)
(0.183835 1.86766e-14 0)
(0.223016 1.50472e-14 0)
(0.262699 1.14051e-14 0)
(0.302762 9.53229e-16 0)
(0.343128 3.54254e-14 0)
(0.38375 -2.2135e-14 0)
(0.424598 7.80851e-15 0)
(0.465659 -5.48974e-15 0)
(0.506927 7.17895e-15 0)
(0.548406 8.27206e-16 0)
(0.590102 5.03116e-14 0)
(0.632017 6.50067e-14 0)
(0.674146 8.51953e-14 0)
(0.716455 2.52429e-14 0)
(0.758868 5.54974e-14 0)
(0.801185 -4.25427e-15 0)
(0.842918 -2.43363e-14 0)
(0.882501 7.04741e-14 0)
(0.915739 9.48754e-14 0)
(0.933574 -3.47245e-15 0)
(0.934411 -7.23635e-15 0)
(0.925356 -5.02196e-15 0)
(0.926683 -1.3826e-15 0)
(0.927594 5.6597e-15 0)
(0.927793 1.08755e-14 0)
(0.927943 1.34431e-14 0)
(0.928131 1.37855e-14 0)
(0.928386 9.37292e-15 0)
(0.92849 8.59243e-15 0)
(0.928268 8.12718e-15 0)
(0.92811 8.56368e-15 0)
(0.928102 5.76693e-15 0)
(0.928116 6.90927e-15 0)
(0.928124 3.29e-15 0)
(0.928224 5.86354e-15 0)
(0.928525 1.45348e-15 0)
(0.928911 -1.90202e-16 0)
(0.929704 7.33473e-16 0)
(0.929483 -1.86948e-14 0)
(0.923477 -1.11262e-14 0)
(0.926167 -7.48266e-15 0)
(0.928769 -7.67714e-15 0)
(0.92958 -7.77616e-15 0)
(0.929463 -8.18117e-15 0)
(0.92856 -6.73664e-15 0)
(0.926957 -2.83136e-15 0)
(0.925903 -2.12633e-15 0)
(0.925521 -1.40541e-15 0)
(0.925078 -4.31479e-15 0)
(0.923439 -5.03135e-15 0)
(0.912542 -4.44607e-15 0)
(0.847111 -5.0075e-15 0)
(0.573527 -3.91725e-15 0)
(0.124354 9.97833e-16 0)
(0.00292863 1.74108e-16 0)
(5.10599e-06 4.66203e-17 0)
(4.7596e-10 1.6263e-17 0)
(1.1835e-14 0 0)
(-1.94098e-16 0 0)
(-3.08479e-16 -6.50519e-18 0)
(-4.52634e-16 0 0)
(-2.6516e-16 1.18178e-16 0)
(3.18844e-17 0 0)
(2.48278e-16 0 0)
(3.56354e-18 0 0)
(-2.59117e-16 1.9624e-16 0)
(-3.40847e-16 1.74556e-16 0)
(-2.85459e-16 1.02999e-16 0)
(-1.5504e-16 1.77809e-16 0)
(0 0 0)
(2.22552e-16 0 0)
(3.12556e-16 1.38777e-16 0)
(1.04519e-16 3.40438e-16 0)
(-1.20124e-16 1.25767e-16 0)
(-3.22734e-16 2.64544e-16 0)
(-3.20856e-16 4.98731e-17 0)
(-5.7745e-17 0 0)
(-3.01321e-19 0 0)
(2.48228e-16 0 0)
(5.52271e-16 0 0)
(1.8903e-16 0 0)
(-1.74567e-16 0 0)
(7.31465e-17 0 0)
(1.65367e-16 1.30104e-16 0)
(-5.27283e-17 3.18754e-16 0)
(-2.6521e-16 1.27935e-16 0)
(-1.62275e-16 0 0)
(-6.978e-17 0 0)
(-2.16792e-16 0 0)
(4.51153e-16 0 0)
(9.77805e-12 1.87133e-15 0)
(2.40397e-08 -9.10727e-17 0)
(6.84962e-06 1.04344e-14 0)
(0.00032135 1.35193e-14 0)
(0.00373331 -1.25599e-14 0)
(0.0165305 -1.08675e-14 0)
(0.0407116 2.52956e-14 0)
(0.0724376 -1.24176e-14 0)
(0.107952 -2.20661e-15 0)
(0.145355 2.63912e-14 0)
(0.183835 -1.15546e-15 0)
(0.223016 1.27476e-14 0)
(0.262699 1.38138e-14 0)
(0.302762 6.28906e-15 0)
(0.343128 2.18997e-14 0)
(0.38375 -1.0492e-14 0)
(0.424598 2.66799e-14 0)
(0.465659 1.55216e-16 0)
(0.506927 5.65152e-15 0)
(0.548406 1.444e-14 0)
(0.590102 3.69672e-14 0)
(0.632017 2.7387e-14 0)
(0.674146 3.55492e-14 0)
(0.716455 2.15217e-14 0)
(0.758868 4.85927e-14 0)
(0.801185 9.79493e-15 0)
(0.842918 2.04574e-14 0)
(0.882501 1.83574e-14 0)
(0.915739 6.64406e-14 0)
(0.933574 1.40891e-14 0)
(0.934411 3.93709e-15 0)
(0.925356 2.02148e-15 0)
(0.926683 6.31749e-15 0)
(0.927594 6.6129e-15 0)
(0.927793 9.70914e-15 0)
(0.927943 9.13517e-15 0)
(0.928131 4.61181e-15 0)
(0.928386 5.82856e-15 0)
(0.92849 8.15027e-15 0)
(0.928268 9.91503e-15 0)
(0.92811 1.03048e-14 0)
(0.928102 9.42351e-15 0)
(0.928116 9.15648e-15 0)
(0.928124 5.70329e-15 0)
(0.928224 5.85464e-15 0)
(0.928525 -1.70805e-16 0)
(0.928911 9.29446e-15 0)
(0.929704 -5.16803e-15 0)
(0.929483 -2.05212e-16 0)
(0.923477 -7.5969e-15 0)
(0.926167 -6.5127e-15 0)
(0.928769 -6.45915e-15 0)
(0.92958 -5.12168e-15 0)
(0.929463 -2.28794e-15 0)
(0.92856 1.29296e-15 0)
(0.926957 2.7457e-15 0)
(0.925903 2.8339e-15 0)
(0.925521 3.42206e-15 0)
(0.925078 9.39155e-16 0)
(0.923439 7.85877e-16 0)
(0.912542 -1.77347e-15 0)
(0.847111 -1.96575e-15 0)
(0.573527 -2.73233e-15 0)
(0.124354 4.75438e-15 0)
(0.00292863 -1.01004e-15 0)
(5.10599e-06 -6.41842e-16 0)
(4.7596e-10 2.0925e-16 0)
(1.17848e-14 0 0)
(-2.49227e-16 8.45675e-17 0)
(-2.12345e-16 6.17993e-17 0)
(-3.1405e-16 2.01661e-16 0)
(-1.94302e-16 3.20923e-16 0)
(-4.89441e-18 1.31188e-16 0)
(2.05804e-16 1.0842e-17 0)
(-2.92015e-17 7.15571e-17 0)
(-2.87786e-16 3.27428e-16 0)
(-3.95406e-16 3.78385e-16 0)
(-3.89509e-16 2.90565e-16 0)
(-3.62122e-16 3.83806e-16 0)
(0 0 0)
(2.59683e-16 0 0)
(5.21557e-16 0 0)
(1.1392e-16 1.06251e-16 0)
(-3.49296e-16 3.44775e-16 0)
(-3.26089e-16 5.89804e-16 0)
(-3.47912e-16 2.7105e-16 0)
(-4.62256e-17 0 0)
(-3.36949e-18 0 0)
(2.51949e-16 0 0)
(5.77765e-16 0 0)
(2.1423e-16 2.1684e-18 0)
(-1.44356e-16 8.23991e-17 0)
(8.47096e-17 3.10081e-16 0)
(3.26379e-16 1.84314e-16 0)
(-3.80785e-17 8.02307e-17 0)
(-4.07611e-16 0 0)
(-1.65873e-16 0 0)
(-9.09935e-17 1.01915e-16 0)
(-2.20069e-16 0 0)
(4.66927e-16 0 0)
(9.77925e-12 -1.0842e-17 0)
(2.40397e-08 1.43765e-15 0)
(6.84962e-06 1.02219e-14 0)
(0.00032135 2.52101e-14 0)
(0.00373331 -6.46922e-15 0)
(0.0165305 -1.04914e-14 0)
(0.0407116 2.91509e-14 0)
(0.0724376 -1.19344e-14 0)
(0.107952 -1.05777e-14 0)
(0.145355 3.09126e-14 0)
(0.183835 -5.15769e-15 0)
(0.223016 1.13389e-14 0)
(0.262699 1.22883e-14 0)
(0.302762 7.23382e-15 0)
(0.343128 1.93121e-14 0)
(0.38375 -6.84657e-15 0)
(0.424598 3.09335e-14 0)
(0.465659 4.35258e-15 0)
(0.506927 1.13709e-15 0)
(0.548406 2.27526e-14 0)
(0.590102 3.08043e-14 0)
(0.632017 1.46846e-14 0)
(0.674146 1.47493e-14 0)
(0.716455 1.88345e-14 0)
(0.758868 4.00065e-14 0)
(0.801185 1.24272e-14 0)
(0.842918 2.77907e-14 0)
(0.882501 6.97006e-15 0)
(0.915739 5.10108e-14 0)
(0.933574 1.01957e-14 0)
(0.934411 3.92236e-15 0)
(0.925356 3.19565e-15 0)
(0.926683 9.00356e-15 0)
(0.927594 5.66893e-15 0)
(0.927793 8.3691e-15 0)
(0.927943 5.93715e-15 0)
(0.928131 2.84471e-15 0)
(0.928386 3.05809e-15 0)
(0.92849 3.82783e-15 0)
(0.928268 9.34176e-15 0)
(0.92811 1.00896e-14 0)
(0.928102 9.91504e-15 0)
(0.928116 1.00666e-14 0)
(0.928124 6.14956e-15 0)
(0.928224 7.39121e-15 0)
(0.928525 -3.07012e-16 0)
(0.928911 9.73403e-15 0)
(0.929704 -8.08528e-15 0)
(0.929483 8.29724e-15 0)
(0.923477 -2.97169e-15 0)
(0.926167 -4.47174e-15 0)
(0.928769 -3.94717e-15 0)
(0.92958 -1.52506e-15 0)
(0.929463 1.95501e-15 0)
(0.92856 5.13749e-15 0)
(0.926957 7.82316e-15 0)
(0.925903 5.70473e-15 0)
(0.925521 3.08544e-15 0)
(0.925078 4.29021e-15 0)
(0.923439 3.06564e-15 0)
(0.912542 1.5891e-15 0)
(0.847111 2.18193e-15 0)
(0.573527 8.48998e-16 0)
(0.124354 4.41981e-15 0)
(0.00292863 -2.99119e-15 0)
(5.10599e-06 -1.24357e-15 0)
(4.75959e-10 1.3314e-15 0)
(1.17838e-14 -9.21569e-17 0)
(-3.17835e-16 2.45029e-16 0)
(-1.97633e-16 2.13587e-16 0)
(-1.20593e-16 3.95732e-16 0)
(-1.59094e-16 5.29089e-16 0)
(-7.15301e-17 3.85975e-16 0)
(1.03362e-16 2.79723e-16 0)
(-7.11776e-18 1.66967e-16 0)
(-2.37064e-16 3.74048e-16 0)
(-4.46411e-16 5.82214e-16 0)
(-4.98372e-16 4.90058e-16 0)
(-5.69204e-16 5.89804e-16 0)
(-2.1684e-18 -2.1684e-18 0)
(2.67224e-16 -2.1684e-18 0)
(5.66856e-16 -2.1684e-18 0)
(1.64716e-16 3.90311e-17 0)
(-3.10859e-16 2.86228e-16 0)
(-6.96213e-16 2.19008e-16 0)
(-3.77211e-16 -2.1684e-18 0)
(-2.35664e-17 -2.1684e-18 0)
(-1.56798e-17 0 0)
(1.6724e-16 0 0)
(4.12609e-16 -4.33679e-18 0)
(2.38745e-16 -4.77047e-17 0)
(1.099e-16 3.03576e-16 0)
(1.84196e-16 6.48351e-16 0)
(2.87609e-16 3.81638e-16 0)
(-5.27983e-17 4.33679e-18 0)
(-3.94369e-16 -2.1684e-18 0)
(-1.45612e-16 1.17093e-16 0)
(-9.77717e-17 3.55617e-16 0)
(-2.48023e-16 1.73472e-16 0)
(4.60136e-16 1.95156e-17 0)
(9.77863e-12 2.32018e-16 0)
(2.40397e-08 1.25984e-15 0)
(6.84962e-06 2.22262e-15 0)
(0.00032135 3.599e-14 0)
(0.00373331 -7.39806e-15 0)
(0.0165305 -1.59581e-14 0)
(0.0407116 3.57144e-14 0)
(0.0724376 -6.30219e-15 0)
(0.107952 -1.56579e-14 0)
(0.145355 3.29473e-14 0)
(0.183835 -3.25943e-15 0)
(0.223016 8.74895e-15 0)
(0.262699 1.11738e-14 0)
(0.302762 5.25827e-15 0)
(0.343128 1.68049e-14 0)
(0.38375 -7.69575e-15 0)
(0.424598 3.2205e-14 0)
(0.465659 7.6644e-15 0)
(0.506927 -3.24496e-15 0)
(0.548406 2.77758e-14 0)
(0.590102 2.25984e-14 0)
(0.632017 8.71118e-15 0)
(0.674146 6.79628e-15 0)
(0.716455 1.92708e-14 0)
(0.758868 3.49157e-14 0)
(0.801185 1.36642e-14 0)
(0.842918 2.85063e-14 0)
(0.882501 9.608e-16 0)
(0.915739 3.4192e-14 0)
(0.933574 8.68048e-15 0)
(0.934411 6.00681e-15 0)
(0.925356 7.70764e-15 0)
(0.926683 7.314e-15 0)
(0.927594 7.03654e-15 0)
(0.927793 7.56692e-15 0)
(0.927943 4.79895e-15 0)
(0.928131 5.85536e-15 0)
(0.928386 -2.015e-16 0)
(0.92849 1.94221e-15 0)
(0.928268 6.47637e-15 0)
(0.92811 9.23078e-15 0)
(0.928102 1.27612e-14 0)
(0.928116 9.79757e-15 0)
(0.928124 3.53522e-15 0)
(0.928224 5.35728e-15 0)
(0.928525 3.19759e-16 0)
(0.928911 1.04178e-14 0)
(0.929704 -5.61818e-15 0)
(0.929483 1.10008e-14 0)
(0.923477 -3.13229e-15 0)
(0.926167 -1.45929e-15 0)
(0.928769 -1.10297e-15 0)
(0.92958 1.05399e-15 0)
(0.929463 4.78774e-15 0)
(0.92856 4.06968e-15 0)
(0.926957 9.72201e-15 0)
(0.925903 7.03426e-15 0)
(0.925521 5.02114e-15 0)
(0.925078 7.27358e-15 0)
(0.923439 5.88537e-15 0)
(0.912542 5.40511e-15 0)
(0.847111 2.94319e-15 0)
(0.573527 4.42419e-15 0)
(0.124354 6.43896e-15 0)
(0.00292863 -2.49374e-15 0)
(5.10599e-06 9.00964e-16 0)
(4.75957e-10 7.63276e-16 0)
(1.21887e-14 1.0842e-17 0)
(-2.2694e-16 2.02745e-16 0)
(-1.24431e-16 1.0083e-16 0)
(-1.77852e-17 2.12503e-16 0)
(-1.9067e-16 3.89227e-16 0)
(-2.03783e-16 5.91972e-16 0)
(-1.01578e-16 5.65951e-16 0)
(-1.76234e-16 4.06574e-16 0)
(-1.32273e-16 2.69965e-16 0)
(-3.44319e-16 3.48028e-16 0)
(-6.37904e-16 2.51534e-16 0)
(-8.21822e-16 3.43691e-16 0)
(-2.1684e-18 2.1684e-18 0)
(2.55247e-16 2.1684e-18 0)
(5.79514e-16 2.1684e-18 0)
(1.47837e-16 1.64798e-16 0)
(-6.4752e-16 -1.64798e-16 0)
(-6.83764e-16 -5.44268e-16 0)
(-3.33415e-16 -2.40692e-16 0)
(7.91161e-18 2.1684e-18 0)
(-3.46267e-17 0 0)
(1.81793e-16 -2.1684e-18 0)
(4.35078e-16 9.75778e-17 0)
(2.5413e-16 2.79723e-16 0)
(3.19941e-16 1.2143e-16 0)
(1.36478e-16 2.79723e-16 0)
(2.96888e-16 9.54094e-17 0)
(-5.29287e-17 9.32411e-17 0)
(-4.02334e-16 2.1684e-18 0)
(-1.83219e-16 2.1684e-18 0)
(-1.43931e-16 -8.67359e-18 0)
(-3.28225e-16 0 0)
(4.05059e-16 4.11995e-17 0)
(9.77979e-12 1.20997e-15 0)
(2.40397e-08 -7.37255e-16 0)
(6.84962e-06 -5.44921e-15 0)
(0.00032135 3.40748e-14 0)
(0.00373331 -2.45152e-15 0)
(0.0165305 -1.81329e-14 0)
(0.0407116 3.77369e-14 0)
(0.0724376 1.44495e-15 0)
(0.107952 -2.03327e-14 0)
(0.145355 2.84481e-14 0)
(0.183835 -5.70876e-15 0)
(0.223016 6.0039e-15 0)
(0.262699 8.26433e-15 0)
(0.302762 -1.21551e-15 0)
(0.343128 1.46807e-14 0)
(0.38375 -1.03904e-14 0)
(0.424598 3.00444e-14 0)
(0.465659 8.77869e-15 0)
(0.506927 -5.50726e-15 0)
(0.548406 2.89363e-14 0)
(0.590102 1.60596e-14 0)
(0.632017 9.05746e-15 0)
(0.674146 2.89425e-15 0)
(0.716455 1.9093e-14 0)
(0.758868 3.22508e-14 0)
(0.801185 1.08142e-14 0)
(0.842918 2.3216e-14 0)
(0.882501 1.86201e-15 0)
(0.915739 2.44677e-14 0)
(0.933574 5.53717e-15 0)
(0.934411 2.28681e-15 0)
(0.925356 5.99049e-15 0)
(0.926683 2.0283e-15 0)
(0.927594 7.14213e-15 0)
(0.927793 7.71069e-15 0)
(0.927943 3.95365e-15 0)
(0.928131 1.00689e-14 0)
(0.928386 -4.08593e-15 0)
(0.92849 9.29462e-16 0)
(0.928268 6.37717e-15 0)
(0.92811 8.44905e-15 0)
(0.928102 1.37005e-14 0)
(0.928116 4.53157e-15 0)
(0.928124 3.46304e-15 0)
(0.928224 2.48815e-15 0)
(0.928525 -4.6325e-16 0)
(0.928911 1.10404e-14 0)
(0.929704 -5.46098e-15 0)
(0.929483 1.13434e-14 0)
(0.923477 -2.60705e-15 0)
(0.926167 4.71898e-17 0)
(0.928769 -2.00619e-15 0)
(0.92958 2.63601e-15 0)
(0.929463 6.07996e-15 0)
(0.92856 2.29256e-15 0)
(0.926957 8.54177e-15 0)
(0.925903 3.73479e-15 0)
(0.925521 5.49559e-15 0)
(0.925078 7.88962e-15 0)
(0.923439 7.08467e-15 0)
(0.912542 4.43729e-15 0)
(0.847111 2.42479e-15 0)
(0.573527 8.7053e-15 0)
(0.124354 3.77905e-15 0)
(0.00292863 2.82357e-15 0)
(5.10599e-06 7.3942e-16 0)
(4.75957e-10 2.99239e-16 0)
(1.20487e-14 3.22007e-16 0)
(-3.99613e-16 2.60208e-17 0)
(-8.65507e-17 -1.33356e-16 0)
(1.611e-16 -1.18178e-16 0)
(7.47433e-17 4.22837e-17 0)
(4.80633e-17 4.43437e-16 0)
(3.09612e-17 7.04729e-16 0)
(-1.94734e-16 6.2233e-16 0)
(-3.57171e-16 2.24429e-16 0)
(-5.70435e-16 -1.14925e-16 0)
(-8.03864e-16 -7.48097e-17 0)
(-9.88789e-16 -1.94071e-16 0)
(0 0 0)
(2.13265e-16 0 0)
(2.93223e-16 -1.99492e-16 0)
(-1.51408e-16 -4.48858e-16 0)
(-7.23584e-16 -6.13656e-16 0)
(-3.86056e-16 -2.7105e-16 0)
(-6.62953e-17 -2.1684e-17 0)
(6.74585e-17 0 0)
(-4.33283e-17 0 0)
(1.94323e-16 7.37255e-17 0)
(4.54967e-16 3.55617e-16 0)
(2.54775e-16 5.35594e-16 0)
(-2.50202e-17 2.55871e-16 0)
(7.25686e-17 -8.45675e-17 0)
(3.05969e-16 -6.50519e-17 0)
(-5.47601e-17 -9.54094e-17 0)
(-4.0499e-16 0 0)
(-2.4278e-16 -1.01915e-16 0)
(-5.78423e-17 -3.62122e-16 0)
(-1.07141e-16 -1.58293e-16 0)
(6.11206e-16 0 0)
(9.78087e-12 2.51534e-16 0)
(2.40397e-08 -2.38957e-15 0)
(6.84962e-06 -6.03902e-15 0)
(0.00032135 2.58521e-14 0)
(0.00373331 3.3499e-15 0)
(0.0165305 -1.97294e-14 0)
(0.0407116 3.01666e-14 0)
(0.0724376 2.35136e-15 0)
(0.107952 -1.76684e-14 0)
(0.145355 2.39452e-14 0)
(0.183835 -6.06682e-15 0)
(0.223016 6.27459e-15 0)
(0.262699 6.68032e-15 0)
(0.302762 -5.78142e-15 0)
(0.343128 1.27933e-14 0)
(0.38375 -1.02752e-14 0)
(0.424598 2.68388e-14 0)
(0.465659 8.2869e-15 0)
(0.506927 -7.30454e-15 0)
(0.548406 2.52395e-14 0)
(0.590102 1.02653e-14 0)
(0.632017 7.00272e-15 0)
(0.674146 -5.73886e-16 0)
(0.716455 1.68152e-14 0)
(0.758868 2.71934e-14 0)
(0.801185 1.21735e-14 0)
(0.842918 1.59681e-14 0)
(0.882501 7.51735e-15 0)
(0.915739 2.14408e-14 0)
(0.933574 4.27915e-15 0)
(0.934411 2.10975e-15 0)
(0.925356 2.77358e-15 0)
(0.926683 3.60155e-15 0)
(0.927594 8.04253e-15 0)
(0.927793 6.60539e-15 0)
(0.927943 2.72036e-15 0)
(0.928131 9.45217e-15 0)
(0.928386 -5.6296e-15 0)
(0.92849 -4.83167e-16 0)
(0.928268 4.29458e-15 0)
(0.92811 5.88542e-15 0)
(0.928102 9.59396e-15 0)
(0.928116 1.67556e-15 0)
(0.928124 3.67925e-15 0)
(0.928224 2.14654e-15 0)
(0.928525 -2.4947e-16 0)
(0.928911 7.4262e-15 0)
(0.929704 -5.20919e-15 0)
(0.929483 9.54139e-15 0)
(0.923477 1.36362e-16 0)
(0.926167 3.98036e-16 0)
(0.928769 -2.91558e-15 0)
(0.92958 1.71544e-15 0)
(0.929463 4.19882e-15 0)
(0.92856 1.13756e-15 0)
(0.926957 5.66322e-15 0)
(0.925903 1.62897e-15 0)
(0.925521 2.87896e-15 0)
(0.925078 3.72282e-15 0)
(0.923439 3.63993e-15 0)
(0.912542 2.0162e-15 0)
(0.847111 1.18925e-15 0)
(0.573527 8.24468e-15 0)
(0.124354 -2.79589e-15 0)
(0.00292863 4.42623e-15 0)
(5.10599e-06 -9.7469e-16 0)
(4.75956e-10 6.4293e-16 0)
(1.14644e-14 1.92987e-16 0)
(-5.06527e-16 -1.11672e-16 0)
(-2.13688e-16 1.0842e-18 0)
(3.69661e-17 -2.56955e-16 0)
(3.28043e-16 -1.92987e-16 0)
(3.63839e-16 1.32272e-16 0)
(1.30481e-16 4.42353e-16 0)
(-2.9115e-16 3.93564e-16 0)
(-5.8723e-16 -1.40946e-17 0)
(-7.60098e-16 -2.78639e-16 0)
(-6.59294e-16 -2.40692e-16 0)
(-7.60023e-16 -3.43691e-16 0)
(3.03576e-17 0 0)
(2.44977e-16 -1.71303e-16 0)
(-2.77512e-17 -5.20415e-16 0)
(-1.95649e-16 -8.93379e-16 0)
(-3.7796e-16 -7.04729e-16 0)
(-3.36552e-17 -3.59954e-16 0)
(2.09369e-16 0 0)
(1.63223e-16 1.95156e-17 0)
(-3.20141e-17 0 0)
(2.05889e-16 0 0)
(4.26046e-16 1.01915e-16 0)
(3.27093e-17 2.62376e-16 0)
(-2.8902e-16 0 0)
(-2.82692e-17 -5.20415e-17 0)
(2.27677e-16 0 0)
(-1.88923e-17 -9.32411e-17 0)
(-2.83897e-16 0 0)
(-2.86801e-16 0 0)
(-8.42142e-17 -1.19262e-16 0)
(2.0762e-17 0 0)
(6.68252e-16 0 0)
(9.7799e-12 -3.36101e-16 0)
(2.40397e-08 -1.29236e-15 0)
(6.84962e-06 -2.05348e-15 0)
(0.00032135 3.87815e-15 0)
(0.00373331 8.05934e-15 0)
(0.0165305 -1.59669e-14 0)
(0.0407116 2.54909e-14 0)
(0.0724376 -8.94877e-16 0)
(0.107952 -1.18843e-14 0)
(0.145355 1.92433e-14 0)
(0.183835 -6.19126e-15 0)
(0.223016 6.66092e-15 0)
(0.262699 7.83975e-15 0)
(0.302762 -6.7008e-15 0)
(0.343128 1.05303e-14 0)
(0.38375 -6.03529e-15 0)
(0.424598 2.12916e-14 0)
(0.465659 5.92108e-15 0)
(0.506927 -5.96549e-15 0)
(0.548406 2.00223e-14 0)
(0.590102 9.78486e-15 0)
(0.632017 6.94071e-15 0)
(0.674146 -4.56726e-17 0)
(0.716455 1.30061e-14 0)
(0.758868 1.96952e-14 0)
(0.801185 1.50808e-14 0)
(0.842918 7.4315e-15 0)
(0.882501 1.89278e-14 0)
(0.915739 1.11711e-14 0)
(0.933574 8.96036e-15 0)
(0.934411 9.51772e-15 0)
(0.925356 6.23992e-15 0)
(0.926683 6.28158e-15 0)
(0.927594 1.00195e-14 0)
(0.927793 4.90848e-15 0)
(0.927943 4.71435e-15 0)
(0.928131 6.39289e-15 0)
(0.928386 -2.02421e-15 0)
(0.92849 1.21459e-15 0)
(0.928268 1.44446e-15 0)
(0.92811 2.89224e-15 0)
(0.928102 5.48295e-15 0)
(0.928116 3.36759e-15 0)
(0.928124 2.7442e-15 0)
(0.928224 2.26361e-15 0)
(0.928525 6.14389e-16 0)
(0.928911 3.19451e-15 0)
(0.929704 -2.61467e-15 0)
(0.929483 7.90065e-15 0)
(0.923477 1.5818e-15 0)
(0.926167 4.79592e-16 0)
(0.928769 -7.86148e-16 0)
(0.92958 9.86773e-16 0)
(0.929463 2.23151e-15 0)
(0.92856 9.32923e-16 0)
(0.926957 2.53232e-15 0)
(0.925903 1.24339e-15 0)
(0.925521 1.36186e-15 0)
(0.925078 1.34319e-15 0)
(0.923439 1.28999e-15 0)
(0.912542 1.10106e-15 0)
(0.847111 3.34342e-16 0)
(0.573527 3.72305e-15 0)
(0.124354 -2.98274e-15 0)
(0.00292863 1.129e-15 0)
(5.10599e-06 -1.42029e-16 0)
(4.75956e-10 1.43114e-16 0)
(1.13235e-14 0 0)
(-5.38377e-16 0 0)
(-3.34116e-16 -1.6263e-17 0)
(5.39163e-17 -9.97462e-17 0)
(4.13225e-16 -9.8662e-17 0)
(4.78341e-16 0 0)
(1.91654e-16 0 0)
(-3.21502e-16 6.39677e-17 0)
(-6.42644e-16 7.15571e-17 0)
(-6.67944e-16 -6.93887e-17 0)
(-5.67564e-16 -3.25259e-17 0)
(-5.48604e-16 -1.33356e-16 0)
(3.70796e-16 1.99492e-16 0)
(3.56194e-16 0 0)
(-3.90476e-17 -2.12503e-16 0)
(-1.29122e-16 -5.52941e-16 0)
(-6.53026e-17 -3.23091e-16 0)
(1.01169e-16 -2.38524e-17 0)
(4.17503e-16 2.10334e-16 0)
(2.08099e-16 4.20669e-16 0)
(-7.83128e-18 2.73218e-16 0)
(2.58182e-16 8.02307e-17 0)
(4.35231e-16 0 0)
(6.90011e-17 0 0)
(-2.97304e-16 0 0)
(-8.01491e-18 -7.37255e-17 0)
(2.36099e-16 0 0)
(-3.81284e-17 9.32411e-17 0)
(-3.43839e-16 9.54094e-17 0)
(-4.1848e-16 0 0)
(-1.27746e-16 0 0)
(5.41799e-17 0 0)
(6.80579e-16 0 0)
(9.78014e-12 4.85721e-16 0)
(2.40397e-08 -4.79216e-16 0)
(6.84962e-06 1.01915e-15 0)
(0.00032135 -1.11985e-14 0)
(0.00373331 1.00649e-14 0)
(0.0165305 -1.55579e-14 0)
(0.0407116 1.8548e-14 0)
(0.0724376 -7.08752e-15 0)
(0.107952 -5.80781e-15 0)
(0.145355 1.45513e-14 0)
(0.183835 -7.08769e-15 0)
(0.223016 7.92767e-15 0)
(0.262699 8.34734e-15 0)
(0.302762 -8.25333e-15 0)
(0.343128 8.92214e-15 0)
(0.38375 -2.26703e-15 0)
(0.424598 1.47499e-14 0)
(0.465659 3.91961e-15 0)
(0.506927 -1.34754e-15 0)
(0.548406 1.57645e-14 0)
(0.590102 8.61665e-15 0)
(0.632017 7.88795e-15 0)
(0.674146 1.80208e-15 0)
(0.716455 1.1298e-14 0)
(0.758868 1.16992e-14 0)
(0.801185 1.52031e-14 0)
(0.842918 4.09288e-17 0)
(0.882501 2.73706e-14 0)
(0.915739 5.77597e-15 0)
(0.933574 1.20128e-14 0)
(0.934411 1.31106e-14 0)
(0.925356 8.54383e-15 0)
(0.926683 8.1154e-15 0)
(0.927594 7.99896e-15 0)
(0.927793 4.02456e-15 0)
(0.927943 7.96453e-15 0)
(0.928131 4.69064e-15 0)
(0.928386 -3.25451e-16 0)
(0.92849 1.15992e-15 0)
(0.928268 6.9091e-16 0)
(0.92811 3.26543e-15 0)
(0.928102 2.80336e-15 0)
(0.928116 2.69194e-15 0)
(0.928124 1.03954e-15 0)
(0.928224 1.57285e-15 0)
(0.928525 7.07622e-16 0)
(0.928911 2.62708e-15 0)
(0.929704 -1.83259e-15 0)
(0.929483 6.64409e-15 0)
(0.923477 -5.5454e-16 0)
(0.926167 -2.19535e-16 0)
(0.928769 4.46733e-16 0)
(0.92958 2.89412e-16 0)
(0.929463 7.52044e-16 0)
(0.92856 2.04125e-15 0)
(0.926957 4.74457e-16 0)
(0.925903 4.75821e-16 0)
(0.925521 3.38159e-16 0)
(0.925078 -4.30147e-16 0)
(0.923439 7.12105e-17 0)
(0.912542 4.57053e-16 0)
(0.847111 -5.71757e-16 0)
(0.573527 -6.56168e-16 0)
(0.124354 -8.3055e-16 0)
(0.00292863 -2.40074e-16 0)
(5.10599e-06 5.89801e-16 0)
(4.75956e-10 -1.11672e-16 0)
(1.13813e-14 1.12757e-16 0)
(-6.16566e-16 2.1684e-16 0)
(-4.01714e-16 2.1684e-18 0)
(7.00008e-17 -1.0842e-18 0)
(4.80471e-16 0 0)
(5.92246e-16 -1.8865e-16 0)
(3.87918e-16 -3.32849e-16 0)
(-1.76491e-17 -8.67359e-17 0)
(-5.5822e-16 2.27682e-16 0)
(-8.39248e-16 1.91903e-16 0)
(-7.3772e-16 2.93818e-16 0)
(-6.65698e-16 2.19008e-16 0)
(7.52434e-16 4.85721e-16 0)
(4.92002e-16 1.84314e-16 0)
(-5.86191e-17 1.32272e-16 0)
(-2.97873e-16 -2.10334e-16 0)
(-1.24106e-16 2.1684e-18 0)
(3.01059e-16 9.54094e-17 0)
(4.78147e-16 5.2692e-16 0)
(2.07794e-16 8.00138e-16 0)
(1.2666e-17 6.04983e-16 0)
(2.73956e-16 3.23091e-16 0)
(3.73e-16 1.51788e-16 0)
(7.38123e-17 -1.51788e-16 0)
(-2.32473e-16 -7.80623e-17 0)
(-8.03137e-18 -2.58039e-16 0)
(2.4088e-16 -4.33679e-17 0)
(-7.4074e-17 4.33679e-17 0)
(-3.76495e-16 3.49112e-16 0)
(-5.06103e-16 1.66967e-16 0)
(-2.04392e-16 0 0)
(5.89795e-17 0 0)
(5.89655e-16 0 0)
(9.78049e-12 -9.25905e-16 0)
(2.40397e-08 -7.63276e-16 0)
(6.84962e-06 5.62052e-15 0)
(0.00032135 -2.43642e-14 0)
(0.00373331 1.48092e-14 0)
(0.0165305 -9.20281e-15 0)
(0.0407116 1.6135e-14 0)
(0.0724376 -1.15965e-14 0)
(0.107952 -7.75168e-16 0)
(0.145355 1.316e-14 0)
(0.183835 -8.49965e-15 0)
(0.223016 1.1243e-14 0)
(0.262699 9.57481e-15 0)
(0.302762 -6.67824e-15 0)
(0.343128 8.42655e-15 0)
(0.38375 2.17907e-15 0)
(0.424598 9.2075e-15 0)
(0.465659 4.37872e-16 0)
(0.506927 1.55459e-15 0)
(0.548406 1.0505e-14 0)
(0.590102 5.99048e-15 0)
(0.632017 8.82184e-15 0)
(0.674146 4.33493e-15 0)
(0.716455 9.60232e-15 0)
(0.758868 4.9518e-15 0)
(0.801185 1.56645e-14 0)
(0.842918 -5.01904e-15 0)
(0.882501 2.79629e-14 0)
(0.915739 4.98028e-15 0)
(0.933574 1.27351e-14 0)
(0.934411 1.37209e-14 0)
(0.925356 1.01321e-14 0)
(0.926683 9.50404e-15 0)
(0.927594 6.33651e-15 0)
(0.927793 2.35468e-15 0)
(0.927943 9.4815e-15 0)
(0.928131 2.38283e-15 0)
(0.928386 1.42385e-15 0)
(0.92849 3.67938e-15 0)
(0.928268 1.17324e-16 0)
(0.92811 4.07232e-15 0)
(0.928102 1.38473e-16 0)
(0.928116 1.71561e-15 0)
(0.928124 8.15744e-16 0)
(0.928224 1.98703e-15 0)
(0.928525 6.66104e-16 0)
(0.928911 1.91115e-15 0)
(0.929704 -1.02467e-15 0)
(0.929483 3.18699e-15 0)
(0.923477 -2.46614e-15 0)
(0.926167 9.59184e-16 0)
(0.928769 2.34253e-15 0)
(0.92958 1.96226e-15 0)
(0.929463 9.162e-16 0)
(0.92856 3.38601e-15 0)
(0.926957 -1.08894e-15 0)
(0.925903 2.00481e-16 0)
(0.925521 -6.68119e-16 0)
(0.925078 -1.84195e-15 0)
(0.923439 -1.30484e-15 0)
(0.912542 -3.63577e-16 0)
(0.847111 -8.39121e-16 0)
(0.573527 -3.16637e-15 0)
(0.124354 -3.17252e-15 0)
(0.00292863 -1.99521e-15 0)
(5.10599e-06 1.39319e-15 0)
(4.75957e-10 -7.44844e-16 0)
(1.15285e-14 2.2985e-16 0)
(-6.61623e-16 4.29343e-16 0)
(-4.18211e-16 2.26597e-16 0)
(3.56316e-17 5.85467e-17 0)
(4.44877e-16 8.78201e-17 0)
(6.02659e-16 -3.90311e-16 0)
(4.12851e-16 -5.76793e-16 0)
(1.37544e-16 -3.0466e-16 0)
(-4.11548e-16 7.58939e-17 0)
(-7.96181e-16 4.00069e-16 0)
(-8.04682e-16 5.42099e-16 0)
(-9.07474e-16 4.57532e-16 0)
(9.82284e-16 2.4286e-16 0)
(5.63154e-16 1.04083e-16 0)
(-5.37887e-17 1.34441e-16 0)
(-3.24633e-16 2.58039e-16 0)
(3.75106e-18 1.01915e-16 0)
(4.04217e-16 2.68881e-16 0)
(6.61051e-16 3.46943e-16 0)
(2.83261e-16 4.55363e-16 0)
(-1.69886e-16 4.22837e-16 0)
(2.98426e-16 2.55871e-16 0)
(2.10275e-18 -4.33679e-17 0)
(-1.53443e-16 -2.60208e-16 0)
(-2.182e-16 -1.73472e-17 0)
(-2.50035e-17 1.06251e-16 0)
(2.59144e-16 3.03576e-17 0)
(1.19102e-16 -1.49619e-16 0)
(-2.097e-16 1.32272e-16 0)
(-5.79027e-16 2.40692e-16 0)
(-2.69047e-16 9.10727e-17 0)
(4.20229e-17 1.92987e-16 0)
(4.2953e-16 7.58939e-17 0)
(9.778e-12 -1.72171e-15 0)
(2.40397e-08 8.17486e-16 0)
(6.84962e-06 7.32055e-15 0)
(0.00032135 -2.32602e-14 0)
(0.00373331 4.26786e-15 0)
(0.0165305 -1.19186e-15 0)
(0.0407116 1.04087e-14 0)
(0.0724376 -1.01815e-14 0)
(0.107952 1.50159e-15 0)
(0.145355 1.02227e-14 0)
(0.183835 -9.76685e-15 0)
(0.223016 1.20117e-14 0)
(0.262699 8.87943e-15 0)
(0.302762 -5.79975e-15 0)
(0.343128 7.76429e-15 0)
(0.38375 5.03295e-15 0)
(0.424598 6.37648e-15 0)
(0.465659 -5.18258e-15 0)
(0.506927 6.80219e-15 0)
(0.548406 5.17665e-15 0)
(0.590102 3.29921e-15 0)
(0.632017 9.04983e-15 0)
(0.674146 4.97037e-15 0)
(0.716455 8.01417e-15 0)
(0.758868 1.67286e-15 0)
(0.801185 1.25742e-14 0)
(0.842918 -5.54761e-15 0)
(0.882501 2.66835e-14 0)
(0.915739 1.46442e-15 0)
(0.933574 1.34062e-14 0)
(0.934411 1.53612e-14 0)
(0.925356 1.13926e-14 0)
(0.926683 7.94254e-15 0)
(0.927594 6.76302e-15 0)
(0.927793 2.08973e-15 0)
(0.927943 7.95722e-15 0)
(0.928131 4.43125e-16 0)
(0.928386 2.39639e-15 0)
(0.92849 5.47378e-15 0)
(0.928268 2.41962e-15 0)
(0.92811 2.13376e-15 0)
(0.928102 -9.86259e-16 0)
(0.928116 1.63907e-15 0)
(0.928124 9.32421e-16 0)
(0.928224 1.15457e-15 0)
(0.928525 5.95087e-16 0)
(0.928911 -7.14348e-16 0)
(0.929704 -4.00673e-16 0)
(0.929483 1.3878e-15 0)
(0.923477 -3.28179e-15 0)
(0.926167 -3.07759e-16 0)
(0.928769 1.20361e-15 0)
(0.92958 2.56623e-15 0)
(0.929463 5.1299e-16 0)
(0.92856 2.60747e-15 0)
(0.926957 -1.79165e-15 0)
(0.925903 3.21487e-16 0)
(0.925521 -1.2394e-15 0)
(0.925078 -1.47684e-15 0)
(0.923439 -1.20443e-15 0)
(0.912542 -4.06442e-16 0)
(0.847111 -1.56716e-15 0)
(0.573527 -3.77484e-15 0)
(0.124354 -3.50807e-15 0)
(0.00292863 -9.3326e-16 0)
(5.10599e-06 8.48923e-16 0)
(4.75958e-10 -8.82537e-16 0)
(1.18419e-14 9.32411e-17 0)
(-4.62882e-16 3.33933e-16 0)
(-3.26154e-16 4.23922e-16 0)
(-9.19573e-17 1.95156e-16 0)
(2.07335e-16 9.8662e-17 0)
(3.26553e-16 -1.74556e-16 0)
(5.31392e-16 -3.48028e-16 0)
(2.63374e-16 -2.01661e-16 0)
(-2.50975e-16 -1.16009e-16 0)
(-6.21238e-16 2.22261e-16 0)
(-8.7101e-16 3.39354e-16 0)
(-1.08637e-15 3.19838e-16 0)
(7.67612e-16 -2.1684e-18 0)
(4.43137e-16 2.55871e-16 0)
(1.6151e-17 3.12249e-16 0)
(-8.93098e-18 5.6812e-16 0)
(1.88069e-16 3.75133e-16 0)
(3.99192e-16 5.59446e-16 0)
(4.19287e-16 3.68627e-16 0)
(1.70204e-16 1.17093e-16 0)
(7.66062e-17 1.97324e-16 0)
(-8.95357e-17 -1.30104e-16 0)
(-3.25688e-16 -3.81638e-16 0)
(-6.87809e-17 -1.27935e-16 0)
(-2.26166e-16 2.1684e-16 0)
(1.79198e-17 4.77047e-16 0)
(2.35388e-16 2.64544e-16 0)
(8.65395e-17 3.03576e-17 0)
(-1.11337e-16 1.36609e-16 0)
(-3.97465e-16 4.20669e-16 0)
(-1.08204e-16 2.94902e-16 0)
(1.56967e-16 4.4669e-16 0)
(4.40433e-16 2.75386e-16 0)
(9.77699e-12 1.6263e-16 0)
(2.40397e-08 4.33679e-16 0)
(6.84962e-06 7.47451e-15 0)
(0.00032135 -5.56345e-15 0)
(0.00373331 -4.87476e-15 0)
(0.0165305 4.03516e-15 0)
(0.0407116 2.76772e-15 0)
(0.0724376 -3.35579e-15 0)
(0.107952 3.33251e-15 0)
(0.145355 5.43002e-15 0)
(0.183835 -1.02163e-14 0)
(0.223016 9.95656e-15 0)
(0.262699 8.03979e-15 0)
(0.302762 -3.76074e-15 0)
(0.343128 5.25563e-15 0)
(0.38375 6.67673e-15 0)
(0.424598 4.85947e-15 0)
(0.465659 -6.90956e-15 0)
(0.506927 1.16968e-14 0)
(0.548406 9.68308e-16 0)
(0.590102 8.33515e-16 0)
(0.632017 8.74934e-15 0)
(0.674146 4.57322e-15 0)
(0.716455 7.17563e-15 0)
(0.758868 1.48759e-15 0)
(0.801185 7.2042e-15 0)
(0.842918 -8.11911e-15 0)
(0.882501 2.57738e-14 0)
(0.915739 1.34123e-15 0)
(0.933574 1.16005e-14 0)
(0.934411 1.24475e-14 0)
(0.925356 9.7526e-15 0)
(0.926683 5.82845e-15 0)
(0.927594 4.88525e-15 0)
(0.927793 2.08623e-15 0)
(0.927943 2.68665e-15 0)
(0.928131 -5.39443e-16 0)
(0.928386 5.38964e-15 0)
(0.92849 2.96862e-15 0)
(0.928268 4.25293e-15 0)
(0.92811 7.96059e-17 0)
(0.928102 1.50657e-15 0)
(0.928116 1.76309e-15 0)
(0.928124 -1.01844e-16 0)
(0.928224 -1.08816e-15 0)
(0.928525 1.92147e-15 0)
(0.928911 -6.35329e-18 0)
(0.929704 -6.02105e-16 0)
(0.929483 2.6248e-15 0)
(0.923477 5.43429e-16 0)
(0.926167 3.1494e-16 0)
(0.928769 1.10194e-15 0)
(0.92958 1.57791e-15 0)
(0.929463 1.58001e-15 0)
(0.92856 2.13613e-15 0)
(0.926957 1.45671e-15 0)
(0.925903 9.38311e-16 0)
(0.925521 -1.74715e-16 0)
(0.925078 1.50961e-15 0)
(0.923439 1.5113e-15 0)
(0.912542 4.51372e-16 0)
(0.847111 5.9136e-16 0)
(0.573527 -4.19729e-16 0)
(0.124354 -9.25442e-16 0)
(0.00292863 -7.38606e-16 0)
(5.10599e-06 -1.43872e-15 0)
(4.75959e-10 2.98155e-16 0)
(1.2058e-14 -3.25259e-18 0)
(-1.54847e-16 2.38524e-17 0)
(-2.47283e-16 2.20092e-16 0)
(-1.38634e-16 1.11672e-16 0)
(4.04498e-17 2.73218e-16 0)
(2.10822e-16 3.01407e-16 0)
(3.40144e-16 1.13841e-16 0)
(8.00368e-17 -1.50704e-16 0)
(-3.13428e-16 -2.88397e-16 0)
(-5.95802e-16 -3.12962e-32 0)
(-7.90866e-16 8.99885e-17 0)
(-9.92041e-16 1.82145e-16 0)
(9.67105e-16 -2.19008e-16 0)
(5.60514e-16 -9.97462e-17 0)
(4.33971e-17 -4.11995e-17 0)
(-5.33641e-17 2.58039e-16 0)
(2.94839e-16 1.95156e-16 0)
(6.23511e-16 2.66713e-16 0)
(2.97846e-16 -6.07151e-17 0)
(1.06661e-16 -3.96817e-16 0)
(-1.81776e-16 -2.66713e-16 0)
(-4.25214e-16 -5.09573e-16 0)
(-8.88819e-17 -1.66967e-16 0)
(1.86227e-16 1.32272e-16 0)
(-4.31196e-17 3.25259e-17 0)
(-2.138e-16 2.51534e-16 0)
(-4.32441e-17 -4.33679e-18 0)
(2.70476e-16 -8.45675e-17 0)
(1.51369e-16 -1.64798e-16 0)
(-4.92439e-17 3.25259e-17 0)
(1.31474e-17 4.33679e-18 0)
(1.98234e-16 2.81892e-17 0)
(4.79451e-16 -1.0842e-16 0)
(9.77806e-12 1.33573e-15 0)
(2.40397e-08 6.46182e-16 0)
(6.84962e-06 3.4044e-16 0)
(0.00032135 4.37918e-15 0)
(0.00373331 -8.52702e-15 0)
(0.0165305 6.94884e-15 0)
(0.0407116 -4.39401e-15 0)
(0.0724376 5.52956e-15 0)
(0.107952 3.66302e-15 0)
(0.145355 1.98438e-15 0)
(0.183835 -7.26165e-15 0)