/*--------------------------------*- C++ -*----------------------------------*\
| =========                 |                                                 |
| \\      /  F ield         | OpenFOAM: The Open Source CFD Toolbox           |
|  \\    /   O peration     | Version:  4.1                                   |
|   \\  /    A nd           | Web:      www.OpenFOAM.org                      |
|    \\/     M anipulation  |                                                 |
\*---------------------------------------------------------------------------*/
FoamFile
{
    version     2.0;
    format      ascii;
    class       volVectorField;
    location    "0.44";
    object      U;
}
// * * * * * * * * * * * * * * * * * * * * * * * * * * * * * * * * * * * * * //

dimensions      [0 1 -1 0 0 0 0];

internalField   nonuniform List<vector> 
10000
(
(0 0 0)
(2.14121e-16 0 0)
(3.17192e-16 0 0)
(1.03533e-16 1.60461e-16 0)
(-1.20999e-16 0 0)
(-3.14264e-16 0 0)
(-2.9519e-16 0 0)
(-6.43112e-17 0 0)
(-1.87297e-19 0 0)
(2.61904e-16 1.56125e-16 0)
(5.2773e-16 0 0)
(1.92276e-16 -1.56125e-16 0)
(-1.79723e-16 0 0)
(6.85652e-17 0 0)
(1.60183e-16 0 0)
(-6.04162e-17 1.32272e-16 0)
(-2.24827e-16 0 0)
(2.19744e-13 -4.33679e-18 0)
(1.33943e-09 1.0842e-16 0)
(8.37278e-07 8.56517e-16 0)
(7.51067e-05 5.41266e-15 0)
(0.0014228 7.67451e-15 0)
(0.00873033 -3.62844e-15 0)
(0.0260503 1.70265e-14 0)
(0.0514845 -2.61314e-15 0)
(0.0812991 2.4773e-15 0)
(0.113239 -1.77677e-14 0)
(0.146313 -3.10184e-15 0)
(0.180088 -2.88167e-15 0)
(0.214349 9.29002e-15 0)
(0.24897 1.6318e-14 0)
(0.283868 2.9557e-14 0)
(0.31899 2.11301e-14 0)
(0.3543 2.82283e-14 0)
(0.389773 -1.79265e-14 0)
(0.425395 4.8393e-14 0)
(0.461158 9.76222e-16 0)
(0.497058 -2.36441e-15 0)
(0.533097 -1.468e-14 0)
(0.569278 7.76714e-15 0)
(0.605603 -6.68747e-15 0)
(0.642072 2.33881e-14 0)
(0.67868 -1.30224e-15 0)
(0.715405 1.05856e-13 0)
(0.752208 8.39598e-14 0)
(0.789006 5.24436e-14 0)
(0.825603 1.07167e-13 0)
(0.861443 1.21589e-13 0)
(0.894919 -2.01628e-13 0)
(0.921452 7.11006e-14 0)
(0.933738 1.1439e-13 0)
(0.93263 6.55447e-14 0)
(0.925634 5.88313e-14 0)
(0.926869 1.77994e-14 0)
(0.927574 5.42363e-15 0)
(0.927749 2.91281e-15 0)
(0.92794 1.23176e-15 0)
(0.928148 5.14124e-15 0)
(0.928426 1.4558e-14 0)
(0.928482 1.93241e-14 0)
(0.928315 1.52054e-14 0)
(0.928169 1.45289e-14 0)
(0.928186 1.38695e-14 0)
(0.928188 1.38529e-14 0)
(0.928134 7.33756e-15 0)
(0.928056 2.99206e-15 0)
(0.927994 7.51658e-15 0)
(0.927991 -1.05289e-15 0)
(0.928138 5.30405e-15 0)
(0.928529 6.68561e-15 0)
(0.928801 -4.73573e-15 0)
(0.928777 -1.3441e-14 0)
(0.929808 -2.46376e-14 0)
(0.928278 -2.31225e-14 0)
(0.925496 -1.37304e-14 0)
(0.925901 -8.98325e-15 0)
(0.925995 -6.03932e-15 0)
(0.926475 -4.19163e-15 0)
(0.92743 -4.45569e-15 0)
(0.928631 -3.50975e-15 0)
(0.929056 -6.9012e-15 0)
(0.928519 -8.1786e-15 0)
(0.927729 -8.84826e-15 0)
(0.926804 -9.14284e-15 0)
(0.925862 -8.52011e-15 0)
(0.924155 -8.0457e-15 0)
(0.916617 -6.16624e-15 0)
(0.873623 -5.84129e-15 0)
(0.67241 -4.19058e-15 0)
(0.220467 -4.7635e-16 0)
(0.00973843 3.05325e-16 0)
(3.44454e-05 5.73523e-16 0)
(7.12779e-09 1.97324e-16 0)
(2.01199e-13 4.66205e-17 0)
(2.51648e-16 0 0)
(-1.25002e-16 1.73472e-17 0)
(-3.23966e-16 2.35271e-16 0)
(-3.84034e-16 2.19008e-16 0)
(-3.68846e-16 1.50704e-16 0)
(-2.35271e-16 2.26597e-16 0)
(0 0 0)
(2.38338e-16 0 0)
(3.22088e-16 1.38777e-16 0)
(1.0425e-16 3.44775e-16 0)
(-1.21757e-16 1.27935e-16 0)
(-3.24331e-16 2.66713e-16 0)
(-3.35141e-16 5.42099e-17 0)
(-7.08698e-17 0 0)
(-1.63101e-18 0 0)
(2.52571e-16 0 0)
(5.5901e-16 0 0)
(1.98875e-16 0 0)
(-1.58169e-16 0 0)
(7.84836e-17 0 0)
(1.56702e-16 1.30104e-16 0)
(-5.64346e-17 3.18754e-16 0)
(-2.50974e-16 1.27935e-16 0)
(2.19738e-13 1.56125e-16 0)
(1.33943e-09 4.96563e-16 0)
(8.37278e-07 4.46256e-15 0)
(7.51067e-05 1.31825e-14 0)
(0.0014228 8.00885e-15 0)
(0.00873033 -3.40343e-15 0)
(0.0260503 2.74102e-14 0)
(0.0514845 -4.99634e-15 0)
(0.0812991 -8.34636e-15 0)
(0.113239 -4.9707e-15 0)
(0.146313 2.20459e-14 0)
(0.180088 1.84771e-15 0)
(0.214349 -9.17396e-15 0)
(0.24897 2.85128e-14 0)
(0.283868 1.62157e-14 0)
(0.31899 1.17882e-14 0)
(0.3543 2.39151e-14 0)
(0.389773 -4.42444e-15 0)
(0.425395 3.60061e-14 0)
(0.461158 -8.13681e-15 0)
(0.497058 1.01522e-14 0)
(0.533097 1.35568e-14 0)
(0.569278 1.19393e-14 0)
(0.605603 -2.27195e-15 0)
(0.642072 2.54161e-14 0)
(0.67868 1.88207e-14 0)
(0.715405 6.58961e-14 0)
(0.752208 2.38254e-14 0)
(0.789006 4.56313e-14 0)
(0.825603 5.98672e-14 0)
(0.861443 8.38951e-14 0)
(0.894919 -4.63003e-14 0)
(0.921452 5.31405e-14 0)
(0.933738 6.3238e-14 0)
(0.93263 5.01716e-14 0)
(0.925634 4.96986e-14 0)
(0.926869 2.14749e-14 0)
(0.927574 8.96529e-15 0)
(0.927749 6.66963e-15 0)
(0.92794 5.74705e-15 0)
(0.928148 8.43094e-15 0)
(0.928426 7.76642e-15 0)
(0.928482 7.94812e-15 0)
(0.928315 1.7911e-14 0)
(0.928169 1.74513e-14 0)
(0.928186 1.63989e-14 0)
(0.928188 1.60863e-14 0)
(0.928134 9.18326e-15 0)
(0.928056 8.40496e-15 0)
(0.927994 5.73828e-15 0)
(0.927991 -1.62903e-17 0)
(0.928138 3.69101e-15 0)
(0.928529 3.33854e-15 0)
(0.928801 -1.28612e-15 0)
(0.928777 -2.3264e-15 0)
(0.929808 -1.1621e-14 0)
(0.928278 -1.53644e-14 0)
(0.925496 -7.91694e-15 0)
(0.925901 -5.55439e-15 0)
(0.925995 -4.40294e-15 0)
(0.926475 -1.48904e-15 0)
(0.92743 3.7537e-15 0)
(0.928631 2.97515e-15 0)
(0.929056 -1.43884e-15 0)
(0.928519 -5.09981e-16 0)
(0.927729 9.57369e-16 0)
(0.926804 -1.03307e-15 0)
(0.925862 -7.41012e-17 0)
(0.924155 -1.29883e-15 0)
(0.916617 -2.12865e-15 0)
(0.873623 -1.68287e-15 0)
(0.67241 -6.59561e-15 0)
(0.220467 -8.51271e-17 0)
(0.00973843 -3.76281e-15 0)
(3.44454e-05 6.73266e-16 0)
(7.12779e-09 5.43183e-16 0)
(2.01062e-13 1.69135e-16 0)
(2.41663e-16 5.20415e-17 0)
(-1.31364e-16 9.32411e-17 0)
(-3.60061e-16 3.62122e-16 0)
(-4.39402e-16 4.21753e-16 0)
(-4.80404e-16 3.3827e-16 0)
(-4.391e-16 4.30427e-16 0)
(0 0 0)
(2.59944e-16 0 0)
(5.25508e-16 0 0)
(1.15999e-16 1.0842e-16 0)
(-3.57343e-16 3.44775e-16 0)
(-3.24929e-16 5.96309e-16 0)
(-3.58272e-16 2.75386e-16 0)
(-5.5438e-17 0 0)
(-9.3633e-18 0 0)
(2.55137e-16 0 0)
(5.81032e-16 0 0)
(2.22568e-16 2.1684e-18 0)
(-1.32024e-16 1.14925e-16 0)
(9.12789e-17 3.36101e-16 0)
(3.20128e-16 2.10334e-16 0)
(-4.6906e-17 9.75778e-17 0)
(-4.1895e-16 0 0)
(2.20351e-13 9.21569e-16 0)
(1.33943e-09 7.71949e-16 0)
(8.37278e-07 1.07574e-14 0)
(7.51067e-05 1.79641e-14 0)
(0.0014228 1.17017e-15 0)
(0.00873033 5.6054e-15 0)
(0.0260503 2.59382e-14 0)
(0.0514845 2.96768e-15 0)
(0.0812991 -1.32882e-14 0)
(0.113239 -2.68241e-15 0)
(0.146313 2.72997e-14 0)
(0.180088 4.86733e-15 0)
(0.214349 -1.47031e-14 0)
(0.24897 3.05777e-14 0)
(0.283868 1.29975e-14 0)
(0.31899 9.90552e-15 0)
(0.3543 2.02561e-14 0)
(0.389773 -2.46988e-16 0)
(0.425395 3.3126e-14 0)
(0.461158 -8.6054e-15 0)
(0.497058 1.42638e-14 0)
(0.533097 2.27025e-14 0)
(0.569278 1.12632e-14 0)
(0.605603 2.69806e-16 0)
(0.642072 2.65862e-14 0)
(0.67868 2.94231e-14 0)
(0.715405 5.04149e-14 0)
(0.752208 6.75069e-15 0)
(0.789006 4.23593e-14 0)
(0.825603 3.34795e-14 0)
(0.861443 6.42945e-14 0)
(0.894919 -1.08124e-14 0)
(0.921452 3.75181e-14 0)
(0.933738 4.39579e-14 0)
(0.93263 3.48707e-14 0)
(0.925634 3.45715e-14 0)
(0.926869 2.2023e-14 0)
(0.927574 1.10476e-14 0)
(0.927749 7.05616e-15 0)
(0.92794 4.7008e-15 0)
(0.928148 8.4669e-15 0)
(0.928426 7.09904e-15 0)
(0.928482 1.89795e-15 0)
(0.928315 1.61565e-14 0)
(0.928169 1.49064e-14 0)
(0.928186 1.56212e-14 0)
(0.928188 1.5176e-14 0)
(0.928134 9.98466e-15 0)
(0.928056 1.02299e-14 0)
(0.927994 3.67246e-15 0)
(0.927991 4.98684e-17 0)
(0.928138 8.70188e-16 0)
(0.928529 3.67811e-15 0)
(0.928801 -1.4488e-15 0)
(0.928777 -1.54321e-15 0)
(0.929808 -6.04053e-15 0)
(0.928278 -8.53302e-15 0)
(0.925496 -1.89861e-15 0)
(0.925901 1.49215e-17 0)
(0.925995 1.05765e-15 0)
(0.926475 3.21247e-15 0)
(0.92743 2.61399e-15 0)
(0.928631 2.9178e-15 0)
(0.929056 3.52807e-15 0)
(0.928519 2.28776e-15 0)
(0.927729 6.84718e-15 0)
(0.926804 6.68789e-15 0)
(0.925862 2.61092e-15 0)
(0.924155 5.42246e-16 0)
(0.916617 -2.16107e-16 0)
(0.873623 1.19916e-15 0)
(0.67241 -2.92273e-15 0)
(0.220467 2.69871e-15 0)
(0.00973843 -2.55226e-15 0)
(3.44454e-05 1.46362e-15 0)
(7.12778e-09 1.37368e-15 0)
(2.01097e-13 2.36355e-16 0)
(1.34464e-16 3.49112e-16 0)
(-6.90906e-17 1.84314e-16 0)
(-2.94182e-16 4.1308e-16 0)
(-5.04382e-16 6.25582e-16 0)
(-5.93374e-16 5.35594e-16 0)
(-6.49435e-16 6.38593e-16 0)
(-2.1684e-18 -2.1684e-18 0)
(2.68732e-16 -2.1684e-18 0)
(5.73346e-16 -2.1684e-18 0)
(1.69052e-16 3.90311e-17 0)
(-3.08152e-16 2.86228e-16 0)
(-6.94009e-16 2.23345e-16 0)
(-3.78032e-16 -2.1684e-18 0)
(-2.93442e-17 -2.1684e-18 0)
(-2.53027e-17 0 0)
(1.91148e-16 0 0)
(4.24971e-16 -4.33679e-18 0)
(2.52741e-16 -4.11995e-17 0)
(1.45845e-16 3.25259e-16 0)
(1.72946e-16 6.85213e-16 0)
(2.65021e-16 4.25006e-16 0)
(-1.04172e-16 4.55363e-17 0)
(-4.35881e-16 -2.1684e-18 0)
(2.2142e-13 3.96817e-16 0)
(1.33943e-09 9.56263e-16 0)
(8.37278e-07 1.2271e-14 0)
(7.51067e-05 1.66413e-14 0)
(0.0014228 -5.20825e-15 0)
(0.00873033 1.08722e-14 0)
(0.0260503 2.16719e-14 0)
(0.0514845 7.28214e-15 0)
(0.0812991 -1.51589e-14 0)
(0.113239 -3.52679e-15 0)
(0.146313 2.90988e-14 0)
(0.180088 7.26936e-15 0)
(0.214349 -1.66866e-14 0)
(0.24897 2.92307e-14 0)
(0.283868 1.15125e-14 0)
(0.31899 7.49352e-15 0)
(0.3543 1.9345e-14 0)
(0.389773 5.45813e-16 0)
(0.425395 3.00253e-14 0)
(0.461158 -8.23606e-15 0)
(0.497058 1.61439e-14 0)
(0.533097 2.75918e-14 0)
(0.569278 7.4758e-15 0)
(0.605603 3.18743e-15 0)
(0.642072 2.58688e-14 0)
(0.67868 3.16068e-14 0)
(0.715405 3.80084e-14 0)
(0.752208 1.34843e-15 0)
(0.789006 3.81745e-14 0)
(0.825603 1.71519e-14 0)
(0.861443 5.70297e-14 0)
(0.894919 -5.53978e-17 0)
(0.921452 2.54141e-14 0)
(0.933738 3.27748e-14 0)
(0.93263 2.8357e-14 0)
(0.925634 3.32267e-14 0)
(0.926869 1.70394e-14 0)
(0.927574 1.18668e-14 0)
(0.927749 7.18914e-15 0)
(0.92794 5.02569e-15 0)
(0.928148 1.04664e-14 0)
(0.928426 5.1233e-15 0)
(0.928482 1.28206e-15 0)
(0.928315 1.07105e-14 0)
(0.928169 1.26917e-14 0)
(0.928186 1.59428e-14 0)
(0.928188 1.26324e-14 0)
(0.928134 5.83294e-15 0)
(0.928056 8.40079e-15 0)
(0.927994 6.01444e-15 0)
(0.927991 3.87378e-15 0)
(0.928138 1.73829e-15 0)
(0.928529 2.18677e-15 0)
(0.928801 -1.64063e-15 0)
(0.928777 2.58375e-15 0)
(0.929808 -8.80619e-16 0)
(0.928278 -3.7183e-15 0)
(0.925496 2.35875e-15 0)
(0.925901 1.26524e-15 0)
(0.925995 4.05056e-15 0)
(0.926475 4.56171e-15 0)
(0.92743 3.3047e-15 0)
(0.928631 7.59713e-15 0)
(0.929056 8.65347e-15 0)
(0.928519 6.734e-15 0)
(0.927729 8.50138e-15 0)
(0.926804 8.79235e-15 0)
(0.925862 3.9335e-15 0)
(0.924155 3.41871e-15 0)
(0.916617 2.00979e-15 0)
(0.873623 3.23362e-15 0)
(0.67241 -9.50577e-16 0)
(0.220467 3.06186e-15 0)
(0.00973843 -1.70509e-15 0)
(3.44454e-05 5.19315e-16 0)
(7.12778e-09 9.66021e-16 0)
(2.01291e-13 7.50265e-16 0)
(-7.27068e-17 6.24498e-16 0)
(-1.89059e-16 4.45605e-16 0)
(-1.83264e-16 3.08997e-16 0)
(-4.08684e-16 3.79469e-16 0)
(-7.2895e-16 2.92734e-16 0)
(-9.09642e-16 3.82722e-16 0)
(-2.1684e-18 2.1684e-18 0)
(2.79231e-16 2.1684e-18 0)
(6.13363e-16 2.1684e-18 0)
(1.74882e-16 1.64798e-16 0)
(-6.45342e-16 -1.6263e-16 0)
(-6.78517e-16 -5.44268e-16 0)
(-3.29743e-16 -2.40692e-16 0)
(1.07564e-17 2.1684e-18 0)
(-3.59608e-17 0 0)
(2.04698e-16 -2.1684e-18 0)
(4.48842e-16 1.2143e-16 0)
(2.67527e-16 3.01407e-16 0)
(3.58912e-16 1.34441e-16 0)
(1.77394e-16 3.14417e-16 0)
(2.07322e-16 1.32272e-16 0)
(-1.57959e-16 9.54094e-17 0)
(-5.21056e-16 2.1684e-18 0)
(2.21216e-13 -6.50519e-18 0)
(1.33943e-09 -1.7564e-16 0)
(8.37278e-07 9.13112e-15 0)
(7.51067e-05 1.0834e-14 0)
(0.0014228 -4.61122e-15 0)
(0.00873033 7.39668e-15 0)
(0.0260503 1.81493e-14 0)
(0.0514845 9.78994e-15 0)
(0.0812991 -1.32324e-14 0)
(0.113239 -3.32614e-15 0)
(0.146313 2.63349e-14 0)
(0.180088 8.26788e-15 0)
(0.214349 -2.02349e-14 0)
(0.24897 2.35709e-14 0)
(0.283868 5.64879e-15 0)
(0.31899 5.04718e-15 0)
(0.3543 1.67846e-14 0)
(0.389773 -2.93031e-15 0)
(0.425395 2.57641e-14 0)
(0.461158 -1.01983e-14 0)
(0.497058 1.47465e-14 0)
(0.533097 3.0179e-14 0)
(0.569278 3.90425e-15 0)
(0.605603 6.96472e-15 0)
(0.642072 2.0347e-14 0)
(0.67868 3.10085e-14 0)
(0.715405 2.78536e-14 0)
(0.752208 1.44046e-15 0)
(0.789006 3.07321e-14 0)
(0.825603 1.16235e-14 0)
(0.861443 4.70329e-14 0)
(0.894919 9.58998e-16 0)
(0.921452 2.36606e-14 0)
(0.933738 2.75702e-14 0)
(0.93263 1.97827e-14 0)
(0.925634 2.63642e-14 0)
(0.926869 1.01047e-14 0)
(0.927574 9.72724e-15 0)
(0.927749 6.90536e-15 0)
(0.92794 5.63091e-15 0)
(0.928148 1.15341e-14 0)
(0.928426 2.80957e-15 0)
(0.928482 -1.08164e-15 0)
(0.928315 9.24189e-15 0)
(0.928169 1.38145e-14 0)
(0.928186 1.57639e-14 0)
(0.928188 7.81781e-15 0)
(0.928134 5.63179e-15 0)
(0.928056 3.32512e-15 0)
(0.927994 4.3523e-15 0)
(0.927991 6.64247e-15 0)
(0.928138 1.50479e-15 0)
(0.928529 1.83312e-15 0)
(0.928801 -3.60744e-15 0)
(0.928777 7.96986e-15 0)
(0.929808 -1.385e-15 0)
(0.928278 -2.45834e-16 0)
(0.925496 4.06734e-15 0)
(0.925901 -1.2071e-15 0)
(0.925995 3.46361e-15 0)
(0.926475 1.65712e-15 0)
(0.92743 1.17922e-15 0)
(0.928631 9.34176e-15 0)
(0.929056 1.11308e-14 0)
(0.928519 8.80151e-15 0)
(0.927729 9.0756e-15 0)
(0.926804 7.47163e-15 0)
(0.925862 7.17402e-15 0)
(0.924155 7.57559e-15 0)
(0.916617 1.66711e-15 0)
(0.873623 2.54268e-15 0)
(0.67241 3.5133e-15 0)
(0.220467 9.16475e-16 0)
(0.00973843 -7.77289e-16 0)
(3.44454e-05 -1.15463e-15 0)
(7.12778e-09 -4.97647e-16 0)
(2.00884e-13 9.81199e-16 0)
(3.30652e-17 7.88212e-16 0)
(-2.3583e-16 6.71119e-16 0)
(-4.10668e-16 2.5045e-16 0)
(-6.34505e-16 -1.05167e-16 0)
(-9.0823e-16 -5.74625e-17 0)
(-1.09938e-15 -1.86482e-16 0)
(6.50519e-18 0 0)
(2.68851e-16 -2.38524e-17 0)
(3.43254e-16 -2.60208e-16 0)
(-1.21433e-16 -5.09573e-16 0)
(-7.20406e-16 -6.26667e-16 0)
(-3.77797e-16 -2.81892e-16 0)
(-3.1942e-17 -2.1684e-17 0)
(8.02866e-17 0 0)
(-3.2492e-17 0 0)
(2.18181e-16 9.10727e-17 0)
(4.75131e-16 3.9248e-16 0)
(2.68166e-16 5.91972e-16 0)
(-1.29227e-17 3.05744e-16 0)
(5.4551e-17 -6.07151e-17 0)
(2.93321e-16 -6.50519e-17 0)
(-6.4859e-17 -9.75778e-17 0)
(-4.12937e-16 0 0)
(2.21673e-13 1.99492e-16 0)
(1.33943e-09 -8.89043e-16 0)
(8.37278e-07 8.95765e-15 0)
(7.51067e-05 5.03751e-15 0)
(0.0014228 -8.26937e-15 0)
(0.00873033 7.18041e-15 0)
(0.0260503 1.61619e-14 0)
(0.0514845 9.54301e-15 0)
(0.0812991 -7.53531e-15 0)
(0.113239 -7.01177e-15 0)
(0.146313 2.22106e-14 0)
(0.180088 5.53808e-15 0)
(0.214349 -1.83936e-14 0)
(0.24897 1.96695e-14 0)
(0.283868 2.02297e-15 0)
(0.31899 5.21599e-15 0)
(0.3543 1.55767e-14 0)
(0.389773 -5.06173e-15 0)
(0.425395 2.13155e-14 0)
(0.461158 -9.39126e-15 0)
(0.497058 1.30228e-14 0)
(0.533097 2.89619e-14 0)
(0.569278 6.36621e-16 0)
(0.605603 8.68869e-15 0)
(0.642072 1.4258e-14 0)
(0.67868 2.62722e-14 0)
(0.715405 2.082e-14 0)
(0.752208 1.47578e-15 0)
(0.789006 1.93246e-14 0)
(0.825603 1.32663e-14 0)
(0.861443 3.71075e-14 0)
(0.894919 4.08343e-15 0)
(0.921452 2.38072e-14 0)
(0.933738 2.30689e-14 0)
(0.93263 1.5964e-14 0)
(0.925634 1.64471e-14 0)
(0.926869 1.01234e-14 0)
(0.927574 9.13288e-15 0)
(0.927749 5.71205e-15 0)
(0.92794 4.41601e-15 0)
(0.928148 9.40063e-15 0)
(0.928426 -8.18875e-16 0)
(0.928482 -1.0371e-15 0)
(0.928315 6.96265e-15 0)
(0.928169 1.29694e-14 0)
(0.928186 1.37154e-14 0)
(0.928188 5.81303e-15 0)
(0.928134 6.06405e-15 0)
(0.928056 1.64733e-15 0)
(0.927994 2.30498e-15 0)
(0.927991 5.64178e-15 0)
(0.928138 -6.80051e-16 0)
(0.928529 2.65608e-15 0)
(0.928801 -1.1987e-15 0)
(0.928777 8.77664e-15 0)
(0.929808 -1.33056e-15 0)
(0.928278 -1.25239e-15 0)
(0.925496 5.9187e-15 0)
(0.925901 9.23074e-16 0)
(0.925995 3.5562e-15 0)
(0.926475 1.34718e-15 0)
(0.92743 -1.38038e-16 0)
(0.928631 7.41995e-15 0)
(0.929056 9.2287e-15 0)
(0.928519 7.14382e-15 0)
(0.927729 8.73791e-15 0)
(0.926804 7.57075e-15 0)
(0.925862 3.44903e-15 0)
(0.924155 5.28895e-15 0)
(0.916617 1.28738e-15 0)
(0.873623 1.40479e-15 0)
(0.67241 4.74974e-15 0)
(0.220467 -1.14559e-15 0)
(0.00973843 6.62254e-16 0)
(3.44454e-05 -1.07332e-15 0)
(7.12779e-09 -1.05926e-15 0)
(2.00797e-13 2.95986e-16 0)
(8.27202e-17 5.11742e-16 0)
(-3.20443e-16 4.35848e-16 0)
(-6.46697e-16 1.73472e-17 0)
(-8.72729e-16 -2.41776e-16 0)
(-7.70919e-16 -2.38524e-16 0)
(-8.71695e-16 -3.40438e-16 0)
(6.28835e-17 0 0)
(3.11915e-16 -2.23345e-16 0)
(1.25606e-17 -5.89804e-16 0)
(-1.8191e-16 -9.69273e-16 0)
(-3.80287e-16 -7.65444e-16 0)
(-4.41779e-17 -3.90311e-16 0)
(2.5705e-16 -1.73472e-17 0)
(1.94801e-16 3.68627e-17 0)
(-7.80346e-18 0 0)
(2.31873e-16 0 0)
(4.30737e-16 1.27935e-16 0)
(4.24381e-17 3.01407e-16 0)
(-2.74544e-16 3.68627e-17 0)
(-2.32797e-17 -5.20415e-17 0)
(2.1794e-16 0 0)
(-4.04029e-17 -9.32411e-17 0)
(-1.91365e-16 0 0)
(2.21551e-13 -4.33679e-18 0)
(1.33943e-09 -2.75386e-16 0)
(8.37278e-07 2.17707e-15 0)
(7.51067e-05 4.31538e-16 0)
(0.0014228 -4.60688e-15 0)
(0.00873033 5.08549e-15 0)
(0.0260503 1.37012e-14 0)
(0.0514845 3.74698e-15 0)
(0.0812991 2.1961e-16 0)
(0.113239 -1.14211e-14 0)
(0.146313 2.12717e-14 0)
(0.180088 2.48682e-15 0)
(0.214349 -1.35868e-14 0)
(0.24897 1.96386e-14 0)
(0.283868 1.07735e-15 0)
(0.31899 4.20455e-15 0)
(0.3543 1.66576e-14 0)
(0.389773 -4.06463e-15 0)
(0.425395 1.51142e-14 0)
(0.461158 -6.0721e-15 0)
(0.497058 1.06634e-14 0)
(0.533097 2.44986e-14 0)
(0.569278 -2.40981e-16 0)
(0.605603 8.50913e-15 0)
(0.642072 1.16473e-14 0)
(0.67868 2.23904e-14 0)
(0.715405 1.53222e-14 0)
(0.752208 6.10644e-15 0)
(0.789006 1.19078e-14 0)
(0.825603 1.98097e-14 0)
(0.861443 2.5859e-14 0)
(0.894919 3.36696e-15 0)
(0.921452 2.3428e-14 0)
(0.933738 2.28395e-14 0)
(0.93263 1.71733e-14 0)
(0.925634 1.2818e-14 0)
(0.926869 9.01711e-15 0)
(0.927574 9.72311e-15 0)
(0.927749 3.66233e-15 0)
(0.92794 4.3021e-15 0)
(0.928148 7.44788e-15 0)
(0.928426 1.22306e-15 0)
(0.928482 4.90459e-15 0)
(0.928315 5.32745e-15 0)
(0.928169 9.35169e-15 0)
(0.928186 1.0039e-14 0)
(0.928188 6.51628e-15 0)
(0.928134 5.20559e-15 0)
(0.928056 4.10856e-15 0)
(0.927994 2.47762e-15 0)
(0.927991 6.32764e-15 0)
(0.928138 5.94351e-16 0)
(0.928529 2.31429e-15 0)
(0.928801 2.53824e-15 0)
(0.928777 7.37457e-15 0)
(0.929808 8.79174e-16 0)
(0.928278 -9.97975e-16 0)
(0.925496 5.33993e-15 0)
(0.925901 3.19783e-15 0)
(0.925995 3.23315e-15 0)
(0.926475 1.61651e-15 0)
(0.92743 2.02284e-15 0)
(0.928631 5.45205e-15 0)
(0.929056 6.29427e-15 0)
(0.928519 4.76868e-15 0)
(0.927729 5.79428e-15 0)
(0.926804 5.6446e-15 0)
(0.925862 2.52098e-15 0)
(0.924155 2.5859e-15 0)
(0.916617 2.07257e-15 0)
(0.873623 1.37868e-15 0)
(0.67241 2.4622e-15 0)
(0.220467 6.62905e-16 0)
(0.00973843 -7.12783e-16 0)
(3.44454e-05 -5.84364e-16 0)
(7.12779e-09 -1.50704e-16 0)
(2.00944e-13 0 0)
(7.63273e-17 2.05998e-17 0)
(-4.1474e-16 1.27935e-16 0)
(-7.29048e-16 1.04083e-16 0)
(-7.60944e-16 -5.63783e-17 0)
(-6.59191e-16 -3.79469e-17 0)
(-6.63529e-16 -1.31188e-16 0)
(4.42353e-16 1.99492e-16 0)
(4.25668e-16 0 0)
(4.42803e-19 -2.45029e-16 0)
(-1.4079e-16 -6.07151e-16 0)
(-9.93066e-17 -3.83806e-16 0)
(1.0393e-16 -4.77047e-17 0)
(4.30089e-16 2.58039e-16 0)
(2.33116e-16 4.57532e-16 0)
(2.86215e-17 2.92734e-16 0)
(2.74151e-16 9.10727e-17 0)
(4.36689e-16 0 0)
(6.88093e-17 0 0)
(-3.00592e-16 0 0)
(-8.72837e-18 -7.37255e-17 0)
(2.07569e-16 0 0)
(-9.58804e-17 9.32411e-17 0)
(-3.15049e-16 9.97462e-17 0)
(2.21605e-13 1.51788e-17 0)
(1.33943e-09 -3.42607e-16 0)
(8.37278e-07 -2.07733e-15 0)
(7.51067e-05 -5.12641e-15 0)
(0.0014228 1.58049e-15 0)
(0.00873033 2.94032e-15 0)
(0.0260503 9.55462e-15 0)
(0.0514845 -3.55328e-15 0)
(0.0812991 9.99867e-15 0)
(0.113239 -1.36354e-14 0)
(0.146313 1.87843e-14 0)
(0.180088 -4.87239e-16 0)
(0.214349 -9.68514e-15 0)
(0.24897 1.948e-14 0)
(0.283868 -8.62433e-16 0)
(0.31899 4.35477e-15 0)
(0.3543 1.72571e-14 0)
(0.389773 -3.3755e-15 0)
(0.425395 9.59009e-15 0)
(0.461158 -2.77735e-15 0)
(0.497058 9.56865e-15 0)
(0.533097 1.76741e-14 0)
(0.569278 1.34877e-16 0)
(0.605603 8.48401e-15 0)
(0.642072 8.97505e-15 0)
(0.67868 1.78685e-14 0)
(0.715405 9.97722e-15 0)
(0.752208 1.09651e-14 0)
(0.789006 3.0202e-15 0)
(0.825603 2.6913e-14 0)
(0.861443 1.47868e-14 0)
(0.894919 4.65465e-15 0)
(0.921452 2.55317e-14 0)
(0.933738 2.24232e-14 0)
(0.93263 1.5669e-14 0)
(0.925634 1.2771e-14 0)
(0.926869 8.9812e-15 0)
(0.927574 7.56669e-15 0)
(0.927749 2.90422e-15 0)
(0.92794 4.31992e-15 0)
(0.928148 6.74679e-15 0)
(0.928426 2.49513e-15 0)
(0.928482 7.18621e-15 0)
(0.928315 5.35606e-15 0)
(0.928169 8.51399e-15 0)
(0.928186 6.30784e-15 0)
(0.928188 6.1804e-15 0)
(0.928134 3.78641e-15 0)
(0.928056 5.01445e-15 0)
(0.927994 2.32964e-15 0)
(0.927991 7.41111e-15 0)
(0.928138 1.84412e-15 0)
(0.928529 5.39001e-16 0)
(0.928801 1.37677e-15 0)
(0.928777 2.76407e-15 0)
(0.929808 2.53877e-15 0)
(0.928278 1.23977e-15 0)
(0.925496 3.03921e-15 0)
(0.925901 2.99459e-15 0)
(0.925995 2.22694e-15 0)
(0.926475 2.22046e-15 0)
(0.92743 4.32689e-15 0)
(0.928631 3.22402e-15 0)
(0.929056 3.38439e-15 0)
(0.928519 2.44515e-15 0)
(0.927729 1.50298e-15 0)
(0.926804 3.92434e-15 0)
(0.925862 2.34978e-15 0)
(0.924155 1.52238e-15 0)
(0.916617 2.19554e-15 0)
(0.873623 1.51453e-15 0)
(0.67241 1.38848e-16 0)
(0.220467 2.13271e-15 0)
(0.00973843 -8.06316e-16 0)
(3.44454e-05 -3.14408e-17 0)
(7.12779e-09 2.10334e-16 0)
(2.01035e-13 -2.60208e-16 0)
(3.0544e-16 -3.74048e-16 0)
(-1.17307e-16 -6.28835e-17 0)
(-6.33038e-16 2.32018e-16 0)
(-9.1074e-16 1.9624e-16 0)
(-8.15355e-16 2.98155e-16 0)
(-7.8496e-16 2.2985e-16 0)
(8.41338e-16 4.87889e-16 0)
(5.69675e-16 1.84314e-16 0)
(-1.75256e-17 1.23599e-16 0)
(-3.05362e-16 -2.2985e-16 0)
(-1.54768e-16 2.1684e-18 0)
(2.80891e-16 1.43114e-16 0)
(4.98184e-16 5.8113e-16 0)
(2.35406e-16 8.39169e-16 0)
(3.15991e-17 6.33172e-16 0)
(2.83843e-16 3.3827e-16 0)
(3.7422e-16 1.56125e-16 0)
(7.02627e-17 -1.56125e-16 0)
(-2.36332e-16 -7.80623e-17 0)
(-9.43427e-18 -2.58039e-16 0)
(2.47728e-16 -4.11995e-17 0)
(-9.70021e-17 4.55363e-17 0)
(-4.05653e-16 3.55617e-16 0)
(2.21489e-13 -2.8406e-16 0)
(1.33943e-09 -1.30754e-15 0)
(8.37278e-07 -6.44665e-15 0)
(7.51067e-05 -8.32283e-15 0)
(0.0014228 2.44456e-15 0)
(0.00873033 3.00367e-15 0)
(0.0260503 4.04686e-15 0)
(0.0514845 -9.95531e-15 0)
(0.0812991 1.54064e-14 0)
(0.113239 -1.14821e-14 0)
(0.146313 1.75308e-14 0)
(0.180088 -2.12107e-15 0)
(0.214349 -5.07926e-15 0)
(0.24897 1.9527e-14 0)
(0.283868 -1.7415e-15 0)
(0.31899 6.26177e-15 0)
(0.3543 1.91693e-14 0)
(0.389773 -2.48513e-16 0)
(0.425395 7.23745e-15 0)
(0.461158 1.095e-15 0)
(0.497058 1.03674e-14 0)
(0.533097 9.71251e-15 0)
(0.569278 1.07902e-17 0)
(0.605603 9.37902e-15 0)
(0.642072 7.69428e-15 0)
(0.67868 1.47804e-14 0)
(0.715405 7.52733e-15 0)
(0.752208 1.36116e-14 0)
(0.789006 -3.70232e-15 0)
(0.825603 3.09067e-14 0)
(0.861443 7.20523e-15 0)
(0.894919 3.01857e-15 0)
(0.921452 2.93093e-14 0)
(0.933738 2.13424e-14 0)
(0.93263 1.44808e-14 0)
(0.925634 1.08598e-14 0)
(0.926869 9.40886e-15 0)
(0.927574 4.67822e-15 0)
(0.927749 1.24039e-15 0)
(0.92794 5.29043e-15 0)
(0.928148 4.72148e-15 0)
(0.928426 3.57975e-15 0)
(0.928482 1.02969e-14 0)
(0.928315 6.40126e-15 0)
(0.928169 7.91209e-15 0)
(0.928186 3.19142e-15 0)
(0.928188 5.74051e-15 0)
(0.928134 3.71914e-15 0)
(0.928056 6.01907e-15 0)
(0.927994 2.0642e-15 0)
(0.927991 5.39277e-15 0)
(0.928138 3.48214e-15 0)
(0.928529 -1.09061e-15 0)
(0.928801 1.62242e-15 0)
(0.928777 -3.53523e-16 0)
(0.929808 4.52739e-15 0)
(0.928278 6.61682e-15 0)
(0.925496 1.02403e-15 0)
(0.925901 3.06971e-15 0)
(0.925995 1.36476e-15 0)
(0.926475 3.67764e-15 0)
(0.92743 5.05146e-15 0)
(0.928631 8.96641e-16 0)
(0.929056 5.60911e-16 0)
(0.928519 9.27981e-16 0)
(0.927729 -1.51268e-15 0)
(0.926804 2.29248e-15 0)
(0.925862 -7.47145e-16 0)
(0.924155 -5.28434e-16 0)
(0.916617 8.58767e-16 0)
(0.873623 1.58751e-16 0)
(0.67241 -1.47581e-15 0)
(0.220467 2.62989e-15 0)
(0.00973843 2.78555e-15 0)
(3.44454e-05 9.32381e-17 0)
(7.12779e-09 1.46475e-15 0)
(2.0101e-13 -6.12572e-16 0)
(4.05757e-16 -6.11488e-16 0)
(9.69998e-17 -2.82976e-16 0)
(-4.55499e-16 7.58939e-17 0)
(-8.73653e-16 4.01153e-16 0)
(-9.32168e-16 5.43183e-16 0)
(-1.03433e-15 4.82468e-16 0)
(1.07552e-15 2.40692e-16 0)
(6.45547e-16 1.04083e-16 0)
(-5.84783e-18 1.34441e-16 0)
(-3.25805e-16 2.73218e-16 0)
(3.61409e-18 1.06251e-16 0)
(4.11537e-16 2.77555e-16 0)
(6.7934e-16 3.98985e-16 0)
(3.00562e-16 4.92226e-16 0)
(-1.52909e-16 4.48858e-16 0)
(3.05834e-16 2.64544e-16 0)
(5.51854e-18 -3.90311e-17 0)
(-1.61353e-16 -2.60208e-16 0)
(-2.27517e-16 -1.73472e-17 0)
(-3.03198e-17 1.06251e-16 0)
(2.55932e-16 3.03576e-17 0)
(7.63303e-17 -1.40946e-16 0)
(2.18736e-17 1.10588e-16 0)
(2.20362e-13 4.77047e-17 0)
(1.33943e-09 -5.85467e-16 0)
(8.37278e-07 -4.15899e-15 0)
(7.51067e-05 -7.27543e-15 0)
(0.0014228 1.82365e-16 0)
(0.00873033 4.14179e-15 0)
(0.0260503 1.11397e-15 0)
(0.0514845 -1.3171e-14 0)
(0.0812991 1.54169e-14 0)
(0.113239 -7.95169e-15 0)
(0.146313 1.2459e-14 0)
(0.180088 -2.00591e-15 0)
(0.214349 -2.20123e-15 0)
(0.24897 1.59832e-14 0)
(0.283868 -3.65633e-15 0)
(0.31899 4.85119e-15 0)
(0.3543 1.67669e-14 0)
(0.389773 1.25476e-15 0)
(0.425395 5.62335e-15 0)
(0.461158 2.90101e-15 0)
(0.497058 1.22408e-14 0)
(0.533097 1.40489e-15 0)
(0.569278 1.06463e-15 0)
(0.605603 8.53797e-15 0)
(0.642072 4.8159e-15 0)
(0.67868 9.01599e-15 0)
(0.715405 6.74237e-15 0)
(0.752208 1.48477e-14 0)
(0.789006 -4.95011e-15 0)
(0.825603 3.13539e-14 0)
(0.861443 1.66614e-15 0)
(0.894919 5.93495e-15 0)
(0.921452 2.22914e-14 0)
(0.933738 2.06097e-14 0)
(0.93263 1.58394e-14 0)
(0.925634 1.32739e-14 0)
(0.926869 6.34025e-15 0)
(0.927574 6.38815e-15 0)
(0.927749 3.89966e-15 0)
(0.92794 7.2757e-15 0)
(0.928148 2.84702e-15 0)
(0.928426 5.28434e-15 0)
(0.928482 8.05883e-15 0)
(0.928315 6.08751e-15 0)
(0.928169 5.42949e-15 0)
(0.928186 3.66786e-15 0)
(0.928188 6.38014e-15 0)
(0.928134 3.80776e-15 0)
(0.928056 6.53965e-15 0)
(0.927994 2.82517e-15 0)
(0.927991 1.92459e-15 0)
(0.928138 3.71981e-15 0)
(0.928529 -7.7106e-17 0)
(0.928801 2.65722e-15 0)
(0.928777 -4.66615e-16 0)
(0.929808 2.56093e-15 0)
(0.928278 8.45881e-15 0)
(0.925496 1.06203e-15 0)
(0.925901 3.80961e-15 0)
(0.925995 2.8535e-15 0)
(0.926475 4.45274e-15 0)
(0.92743 3.67262e-15 0)
(0.928631 6.1244e-16 0)
(0.929056 1.89186e-17 0)
(0.928519 1.52943e-15 0)
(0.927729 -4.01543e-16 0)
(0.926804 -1.29773e-15 0)
(0.925862 -1.35886e-15 0)
(0.924155 -1.77048e-15 0)
(0.916617 -6.0407e-16 0)
(0.873623 -1.42769e-15 0)
(0.67241 -5.51624e-16 0)
(0.220467 -7.28109e-16 0)
(0.00973843 5.20235e-15 0)
(3.44454e-05 1.99486e-16 0)
(7.12778e-09 7.51349e-16 0)
(2.0139e-13 -4.16332e-16 0)
(5.77898e-16 -3.77301e-16 0)
(1.82244e-16 -2.19008e-16 0)
(-2.91631e-16 -1.46367e-16 0)
(-6.95836e-16 2.22261e-16 0)
(-9.87398e-16 3.39354e-16 0)
(-1.21972e-15 3.54533e-16 0)
(8.60853e-16 -2.1684e-18 0)
(5.31127e-16 2.55871e-16 0)
(6.72979e-17 3.05744e-16 0)
(-2.54387e-18 5.89804e-16 0)
(2.10279e-16 3.88143e-16 0)
(4.30489e-16 5.50773e-16 0)
(4.21553e-16 3.85975e-16 0)
(1.72421e-16 1.36609e-16 0)
(1.03311e-16 1.97324e-16 0)
(-8.58598e-17 -1.30104e-16 0)
(-3.24829e-16 -3.77301e-16 0)
(-7.01662e-17 -1.25767e-16 0)
(-2.33451e-16 2.19008e-16 0)
(1.66331e-17 4.77047e-16 0)
(2.37554e-16 2.64544e-16 0)
(7.9979e-17 3.03576e-17 0)
(6.16319e-17 1.51788e-17 0)
(2.21011e-13 6.13656e-16 0)
(1.33943e-09 -1.40946e-16 0)
(8.37278e-07 2.51317e-15 0)
(7.51067e-05 6.98268e-16 0)
(0.0014228 -2.14278e-15 0)
(0.00873033 3.46897e-15 0)
(0.0260503 4.61548e-15 0)
(0.0514845 -1.16204e-14 0)
(0.0812991 1.62942e-14 0)
(0.113239 -4.64824e-15 0)
(0.146313 4.45368e-15 0)
(0.180088 7.78317e-16 0)
(0.214349 1.59094e-15 0)
(0.24897 1.04969e-14 0)
(0.283868 -5.89144e-15 0)
(0.31899 2.59798e-15 0)
(0.3543 1.4645e-14 0)
(0.389773 3.60115e-15 0)
(0.425395 3.48015e-15 0)
(0.461158 3.66409e-15 0)
(0.497058 1.47818e-14 0)
(0.533097 -3.17665e-15 0)
(0.569278 2.57526e-15 0)
(0.605603 7.79275e-15 0)
(0.642072 2.75511e-15 0)
(0.67868 3.92767e-15 0)
(0.715405 3.09955e-15 0)
(0.752208 1.54074e-14 0)
(0.789006 -3.98404e-15 0)
(0.825603 2.9864e-14 0)
(0.861443 -7.40055e-15 0)
(0.894919 8.83534e-15 0)
(0.921452 2.01877e-14 0)
(0.933738 1.78246e-14 0)
(0.93263 1.29184e-14 0)
(0.925634 1.145e-14 0)
(0.926869 4.01798e-15 0)
(0.927574 5.21788e-15 0)
(0.927749 5.48045e-15 0)
(0.92794 7.5223e-15 0)
(0.928148 3.03192e-15 0)
(0.928426 8.79853e-15 0)
(0.928482 4.33768e-15 0)
(0.928315 4.97809e-15 0)
(0.928169 2.73874e-15 0)
(0.928186 5.73477e-15 0)
(0.928188 6.14859e-15 0)
(0.928134 2.53203e-15 0)
(0.928056 3.9688e-15 0)
(0.927994 5.35309e-15 0)
(0.927991 1.1237e-15 0)
(0.928138 2.28476e-15 0)
(0.928529 3.69812e-15 0)
(0.928801 4.05665e-15 0)
(0.928777 3.61271e-15 0)
(0.929808 2.68329e-15 0)
(0.928278 2.91316e-15 0)
(0.925496 3.95641e-15 0)
(0.925901 5.03883e-15 0)
(0.925995 4.75738e-15 0)
(0.926475 5.60358e-15 0)
(0.92743 2.90803e-15 0)
(0.928631 3.55174e-15 0)
(0.929056 2.80711e-15 0)
(0.928519 3.6598e-15 0)
(0.927729 3.08463e-15 0)
(0.926804 2.04366e-17 0)
(0.925862 5.67769e-16 0)
(0.924155 -1.01646e-15 0)
(0.916617 -2.15901e-15 0)
(0.873623 -1.44368e-15 0)
(0.67241 -8.35603e-17 0)
(0.220467 -3.84159e-15 0)
(0.00973843 2.4813e-15 0)
(3.44454e-05 -4.13066e-16 0)
(7.12778e-09 2.47197e-16 0)
(2.01161e-13 6.03898e-16 0)
(3.70814e-16 1.77809e-16 0)
(7.24882e-18 -2.21176e-16 0)
(-3.7803e-16 -3.13333e-16 0)
(-6.61705e-16 -2.1684e-18 0)
(-9.15896e-16 8.99885e-17 0)
(-1.11998e-15 2.52618e-16 0)
(1.05167e-15 -2.14671e-16 0)
(6.40868e-16 -9.97462e-17 0)
(1.04736e-16 -4.98731e-17 0)
(-1.43825e-17 2.64544e-16 0)
(3.31158e-16 2.05998e-16 0)
(6.56096e-16 2.53702e-16 0)
(3.31293e-16 -6.93887e-17 0)
(1.53122e-16 -3.96817e-16 0)
(-1.63604e-16 -2.73218e-16 0)
(-4.15232e-16 -5.18247e-16 0)
(-7.93181e-17 -1.7564e-16 0)
(1.85048e-16 1.32272e-16 0)
(-4.7624e-17 3.25259e-17 0)
(-2.16338e-16 2.49366e-16 0)
(-4.68509e-17 -4.33679e-18 0)
(2.23893e-16 -9.32411e-17 0)
(3.79327e-16 -2.08166e-16 0)
(2.21758e-13 2.8406e-16 0)
(1.33942e-09 -8.67359e-18 0)
(8.37278e-07 2.44162e-15 0)
(7.51067e-05 5.07437e-15 0)
(0.0014228 -2.05594e-15 0)
(0.00873033 -2.60391e-15 0)
(0.0260503 8.90952e-15 0)
(0.0514845 -1.32832e-14 0)
(0.0812991 1.67915e-14 0)
(0.113239 -1.49885e-15 0)
(0.146313 -1.73649e-15 0)
(0.180088 2.95761e-15 0)
(0.214349 5.59696e-15 0)
(0.24897 5.3748e-15 0)
(0.283868 -5.73615e-15 0)
(0.31899 2.86694e-15 0)
(0.3543 1.03599e-14 0)