/*--------------------------------*- C++ -*----------------------------------*\
| =========                 |                                                 |
| \\      /  F ield         | OpenFOAM: The Open Source CFD Toolbox           |
|  \\    /   O peration     | Version:  4.1                                   |
|   \\  /    A nd           | Web:      www.OpenFOAM.org                      |
|    \\/     M anipulation  |                                                 |
\*---------------------------------------------------------------------------*/
FoamFile
{
    version     2.0;
    format      ascii;
    class       volVectorField;
    location    "0.24";
    object      U;
}
// * * * * * * * * * * * * * * * * * * * * * * * * * * * * * * * * * * * * * //

dimensions      [0 1 -1 0 0 0 0];

internalField   nonuniform List<vector> 
10000
(
(0 0 0)
(1.11269e-16 0 0)
(2.74968e-16 0 0)
(8.19361e-17 1.43114e-16 0)
(-1.15645e-16 0 0)
(-2.19887e-16 0 0)
(-2.13037e-16 0 0)
(-3.13224e-17 0 0)
(-5.92562e-25 0 0)
(1.75218e-16 1.36609e-16 0)
(4.11774e-16 0 0)
(9.29367e-17 -1.53956e-16 0)
(-2.68372e-16 0 0)
(8.29103e-18 0 0)
(1.56438e-16 0 0)
(-3.85141e-17 1.30104e-16 0)
(-2.35004e-16 0 0)
(-9.99657e-17 0 0)
(-1.42563e-17 0 0)
(-1.2126e-16 0 0)
(3.39863e-19 0 0)
(7.50757e-17 1.10588e-16 0)
(2.0207e-17 0 0)
(9.90397e-17 0 0)
(-7.53279e-17 0 0)
(-2.37869e-16 0 0)
(-3.51686e-16 -1.17093e-16 0)
(-4.99496e-17 1.25767e-16 0)
(3.06863e-16 8.89043e-17 0)
(1.10966e-13 5.07405e-16 0)
(9.67546e-10 8.80369e-16 0)
(8.20565e-07 -1.1731e-15 0)
(9.30129e-05 2.35723e-15 0)
(0.00207045 2.63922e-15 0)
(0.013982 9.45729e-15 0)
(0.0438199 3.39864e-15 0)
(0.088656 -8.06104e-15 0)
(0.141662 4.95928e-15 0)
(0.198665 -1.47951e-16 0)
(0.257828 2.1981e-14 0)
(0.318348 3.33661e-14 0)
(0.379846 2.53032e-14 0)
(0.442142 9.65134e-15 0)
(0.505174 1.34628e-14 0)
(0.568951 1.87388e-14 0)
(0.633494 2.19915e-14 0)
(0.698781 2.49247e-15 0)
(0.764294 -2.00045e-14 0)
(0.828969 -8.80912e-15 0)
(0.887771 1.26115e-14 0)
(0.929872 9.41012e-15 0)
(0.940917 9.66765e-15 0)
(0.924368 9.54099e-15 0)
(0.925795 8.68875e-15 0)
(0.927072 5.15037e-15 0)
(0.927186 4.53089e-15 0)
(0.927287 3.60309e-15 0)
(0.927453 2.31686e-15 0)
(0.927946 4.91463e-15 0)
(0.928683 6.35509e-15 0)
(0.929238 5.70265e-15 0)
(0.930557 4.62879e-15 0)
(0.932327 3.46712e-15 0)
(0.92504 5.73396e-15 0)
(0.921837 1.12941e-17 0)
(0.925638 8.34465e-17 0)
(0.929666 -1.56282e-15 0)
(0.93357 -6.0974e-15 0)
(0.932276 -6.75432e-15 0)
(0.914265 -6.82996e-15 0)
(0.801599 -5.72831e-15 0)
(0.419224 -2.79823e-15 0)
(0.0450597 -1.67001e-16 0)
(0.000426025 1.29187e-15 0)
(2.60963e-07 3.96816e-16 0)
(8.59381e-12 1.73472e-17 0)
(5.47951e-16 0 0)
(-1.7162e-17 0 0)
(-1.43029e-16 1.11672e-16 0)
(5.24889e-17 0 0)
(2.55073e-16 0 0)
(5.32723e-17 0 0)
(-1.43255e-16 0 0)
(6.04079e-17 0 0)
(2.57276e-16 9.97462e-17 0)
(7.73374e-17 0 0)
(-1.6709e-16 0 0)
(-6.16389e-17 0 0)
(-5.74507e-17 0 0)
(-1.60234e-16 0 0)
(-2.34121e-16 -6.50519e-18 0)
(-3.84951e-16 0 0)
(-1.78847e-16 5.42099e-17 0)
(6.30515e-17 0 0)
(2.73391e-16 0 0)
(5.27619e-17 0 0)
(-1.87262e-16 1.02999e-16 0)
(-2.19008e-16 4.11995e-17 0)
(-1.25898e-16 0 0)
(0 5.52941e-17 0)
(0 0 0)
(1.50417e-16 0 0)
(2.91136e-16 1.36609e-16 0)
(9.22644e-17 3.27428e-16 0)
(-1.30595e-16 1.25767e-16 0)
(-2.99727e-16 2.47197e-16 0)
(-2.67856e-16 4.98731e-17 0)
(-3.28919e-17 0 0)
(-1.95877e-22 0 0)
(1.97911e-16 0 0)
(4.83524e-16 0 0)
(1.36371e-16 0 0)
(-2.22371e-16 0 0)
(3.81022e-17 0 0)
(1.55584e-16 1.30104e-16 0)
(-4.12572e-17 3.14417e-16 0)
(-2.46603e-16 1.27935e-16 0)
(-1.35955e-16 0 0)
(-3.58858e-17 0 0)
(-1.91614e-16 0 0)
(-7.49409e-20 0 0)
(1.10509e-16 2.1684e-18 0)
(3.92652e-17 0 0)
(1.13448e-16 1.53956e-16 0)
(-1.13495e-16 3.44775e-16 0)
(-3.14004e-16 1.47451e-16 0)
(-2.49483e-16 1.0842e-16 0)
(-4.92799e-17 3.05744e-16 0)
(1.75011e-16 9.75778e-17 0)
(1.11316e-13 7.80623e-17 0)
(9.67547e-10 7.50265e-16 0)
(8.20565e-07 -1.40946e-16 0)
(9.30129e-05 3.59982e-15 0)
(0.00207045 4.74409e-15 0)
(0.013982 1.27158e-14 0)
(0.0438199 -5.50197e-15 0)
(0.088656 8.32534e-15 0)
(0.141662 6.63767e-15 0)
(0.198665 -2.40839e-15 0)
(0.257828 2.9309e-14 0)
(0.318348 -1.83635e-15 0)
(0.379846 1.51462e-14 0)
(0.442142 3.03696e-14 0)
(0.505174 1.14356e-14 0)
(0.568951 9.66884e-15 0)
(0.633494 9.60583e-15 0)
(0.698781 1.41372e-14 0)
(0.764294 -1.95126e-15 0)
(0.828969 1.31941e-15 0)
(0.887771 8.67892e-15 0)
(0.929872 1.25291e-14 0)
(0.940917 8.29024e-15 0)
(0.924368 4.98701e-15 0)
(0.925795 1.00323e-14 0)
(0.927072 5.94477e-15 0)
(0.927186 3.62656e-15 0)
(0.927287 2.27616e-15 0)
(0.927453 1.28243e-15 0)
(0.927946 3.56355e-15 0)
(0.928683 3.97389e-15 0)
(0.929238 5.97489e-15 0)
(0.930557 7.43213e-15 0)
(0.932327 6.84177e-15 0)
(0.92504 7.83983e-15 0)
(0.921837 2.83994e-15 0)
(0.925638 1.76783e-15 0)
(0.929666 -1.34132e-16 0)
(0.93357 -2.77099e-15 0)
(0.932276 -2.31509e-15 0)
(0.914265 -1.63114e-15 0)
(0.801599 -3.46376e-15 0)
(0.419224 -2.10293e-15 0)
(0.0450597 -6.18946e-16 0)
(0.000426025 9.63485e-16 0)
(2.60963e-07 2.94902e-16 0)
(8.59374e-12 3.20923e-16 0)
(4.89917e-16 8.13149e-17 0)
(-5.77299e-17 5.42099e-17 0)
(-1.67153e-16 2.22261e-16 0)
(7.73166e-18 5.20415e-17 0)
(2.11451e-16 2.05998e-17 0)
(4.41065e-17 0 0)
(-1.37276e-16 7.04729e-17 0)
(6.30752e-17 1.56125e-16 0)
(2.67532e-16 2.02745e-16 0)
(8.46078e-17 2.1684e-17 0)
(-1.78041e-16 0 0)
(-8.4312e-17 0 0)
(-9.07814e-17 0 0)
(-1.98662e-16 -6.50519e-18 0)
(-1.42404e-16 -1.0842e-17 0)
(-2.54941e-16 1.32272e-16 0)
(-1.34316e-16 2.53702e-16 0)
(5.19996e-17 7.69781e-17 0)
(2.59779e-16 0 0)
(3.63918e-17 1.95156e-17 0)
(-2.09652e-16 2.19008e-16 0)
(-2.9947e-16 2.43945e-16 0)
(-2.07952e-16 1.69135e-16 0)
(-1.76724e-16 2.6346e-16 0)
(0 0 0)
(2.2457e-16 0 0)
(5.24391e-16 0 0)
(1.12113e-16 9.54094e-17 0)
(-3.68826e-16 3.44775e-16 0)
(-3.24885e-16 5.70288e-16 0)
(-2.86589e-16 2.4286e-16 0)
(-2.90907e-17 0 0)
(-2.05046e-20 0 0)
(2.37443e-16 0 0)
(5.54006e-16 0 0)
(1.99535e-16 2.1684e-18 0)
(-1.35484e-16 3.46943e-17 0)
(8.48661e-17 2.51534e-16 0)
(3.19233e-16 1.10588e-16 0)
(-5.03327e-17 7.58939e-17 0)
(-4.1119e-16 0 0)
(-1.66596e-16 0 0)
(-7.65809e-17 1.01915e-16 0)
(-2.58105e-16 0 0)
(-1.24855e-18 0 0)
(2.04819e-16 0 0)
(7.50778e-17 8.89043e-17 0)
(1.64117e-16 4.31511e-16 0)
(-1.0357e-16 7.00392e-16 0)
(-3.92828e-16 4.11995e-16 0)
(-3.89094e-16 7.15571e-17 0)
(-5.74029e-17 7.15571e-17 0)
(2.18504e-16 0 0)
(1.11051e-13 -3.55617e-16 0)
(9.67548e-10 1.55257e-15 0)
(8.20565e-07 1.10588e-15 0)
(9.30129e-05 5.1677e-15 0)
(0.00207045 6.9228e-15 0)
(0.013982 1.2944e-14 0)
(0.0438199 -1.78372e-15 0)
(0.088656 1.11145e-14 0)
(0.141662 7.67825e-15 0)
(0.198665 -5.65817e-15 0)
(0.257828 3.25223e-14 0)
(0.318348 -1.02515e-14 0)
(0.379846 6.91941e-15 0)
(0.442142 3.31575e-14 0)
(0.505174 7.92206e-15 0)
(0.568951 6.05382e-15 0)
(0.633494 6.16944e-15 0)
(0.698781 1.5626e-14 0)
(0.764294 9.42585e-17 0)
(0.828969 4.81284e-15 0)
(0.887771 9.54889e-15 0)
(0.929872 6.53037e-15 0)
(0.940917 6.5041e-15 0)
(0.924368 4.54923e-15 0)
(0.925795 1.05396e-14 0)
(0.927072 5.39336e-15 0)
(0.927186 1.89085e-15 0)
(0.927287 2.71985e-16 0)
(0.927453 3.94518e-16 0)
(0.927946 1.20148e-15 0)
(0.928683 8.96047e-16 0)
(0.929238 3.65649e-15 0)
(0.930557 7.12606e-15 0)
(0.932327 7.36641e-15 0)
(0.92504 1.1068e-14 0)
(0.921837 5.21477e-15 0)
(0.925638 4.94344e-15 0)
(0.929666 1.02424e-15 0)
(0.93357 -4.96556e-16 0)
(0.932276 -1.15908e-15 0)
(0.914265 1.07948e-15 0)
(0.801599 -1.97411e-16 0)
(0.419224 1.21427e-15 0)
(0.0450597 -2.36932e-16 0)
(0.000426025 -1.24635e-16 0)
(2.60963e-07 2.8406e-16 0)
(8.5933e-12 8.47843e-16 0)
(5.19972e-16 3.22007e-16 0)
(-2.56101e-17 1.69135e-16 0)
(-2.39141e-16 2.17924e-16 0)
(-6.4697e-17 2.90565e-16 0)
(1.52061e-16 2.85144e-16 0)
(1.67453e-16 2.0925e-16 0)
(6.60407e-17 3.36101e-16 0)
(1.67755e-16 3.48028e-16 0)
(1.59778e-16 1.35525e-16 0)
(-1.94747e-17 -8.02307e-17 0)
(-1.56327e-16 -3.25259e-18 0)
(-1.00619e-16 9.8662e-17 0)
(-1.41289e-16 -2.1684e-18 0)
(-2.44185e-16 9.97462e-17 0)
(-1.09769e-16 1.05167e-16 0)
(-7.72369e-17 3.12249e-16 0)
(-1.40592e-16 4.58616e-16 0)
(2.86265e-18 3.63206e-16 0)
(1.80698e-16 1.85398e-16 0)
(6.11314e-17 5.85467e-17 0)
(-1.65029e-16 2.43945e-16 0)
(-3.69834e-16 4.48858e-16 0)
(-2.83421e-16 3.62122e-16 0)
(-3.78385e-16 4.64037e-16 0)
(-2.1684e-18 -2.1684e-18 0)
(2.80512e-16 -2.1684e-18 0)
(6.14575e-16 -2.1684e-18 0)
(2.30495e-16 3.90311e-17 0)
(-2.62981e-16 2.86228e-16 0)
(-6.40765e-16 1.79977e-16 0)
(-3.23201e-16 -2.1684e-18 0)
(-1.99978e-17 -2.1684e-18 0)
(-6.36281e-19 0 0)
(1.14875e-16 0 0)
(3.72215e-16 -4.33679e-18 0)
(1.98056e-16 -1.58293e-16 0)
(1.89217e-16 2.05998e-16 0)
(1.8765e-16 5.70288e-16 0)
(2.46608e-16 2.90565e-16 0)
(-5.24148e-17 0 0)
(-3.26319e-16 -2.1684e-18 0)
(-8.42107e-17 1.17093e-16 0)
(-9.12767e-17 3.49112e-16 0)
(-2.60545e-16 1.73472e-16 0)
(1.15203e-19 0 0)
(2.6294e-16 1.53956e-16 0)
(8.56913e-17 3.36101e-16 0)
(2.46902e-16 1.49619e-16 0)
(-9.34962e-17 2.58039e-16 0)
(-4.53546e-16 1.0842e-16 0)
(-4.48151e-16 -4.33679e-18 0)
(-1.05675e-16 0 0)
(1.69531e-16 -2.1684e-18 0)
(1.10768e-13 -4.33679e-18 0)
(9.67552e-10 2.23345e-15 0)
(8.20565e-07 2.41993e-15 0)
(9.30129e-05 9.19472e-16 0)
(0.00207045 9.36653e-15 0)
(0.013982 9.36952e-15 0)
(0.0438199 4.20554e-15 0)
(0.088656 8.49608e-15 0)
(0.141662 1.32398e-14 0)
(0.198665 -1.03064e-14 0)
(0.257828 3.09434e-14 0)
(0.318348 -1.0682e-14 0)
(0.379846 1.07917e-15 0)
(0.442142 3.30583e-14 0)
(0.505174 5.4373e-15 0)
(0.568951 3.97473e-15 0)
(0.633494 6.31279e-15 0)
(0.698781 1.32352e-14 0)
(0.764294 1.70424e-15 0)
(0.828969 4.19465e-15 0)
(0.887771 3.75153e-15 0)
(0.929872 1.17435e-15 0)
(0.940917 6.27432e-15 0)
(0.924368 9.00863e-15 0)
(0.925795 5.65065e-15 0)
(0.927072 4.05042e-15 0)
(0.927186 1.56785e-15 0)
(0.927287 8.97648e-16 0)
(0.927453 -2.48964e-16 0)
(0.927946 -1.28659e-15 0)
(0.928683 9.21189e-16 0)
(0.929238 2.57056e-15 0)
(0.930557 4.53419e-15 0)
(0.932327 7.22328e-15 0)
(0.92504 1.02507e-14 0)
(0.921837 4.22295e-15 0)
(0.925638 4.0894e-15 0)
(0.929666 2.33627e-15 0)
(0.93357 1.55417e-15 0)
(0.932276 9.69656e-16 0)
(0.914265 1.67314e-15 0)
(0.801599 -1.22417e-15 0)
(0.419224 3.84003e-15 0)
(0.0450597 1.22954e-15 0)
(0.000426025 -1.37641e-16 0)
(2.60963e-07 1.67617e-15 0)
(8.59268e-12 5.24752e-16 0)
(4.40318e-16 5.24752e-16 0)
(-6.47385e-17 3.3068e-16 0)
(-2.1167e-16 3.54533e-16 0)
(-3.37608e-17 5.33426e-16 0)
(1.76607e-16 5.8872e-16 0)
(3.31426e-16 4.34764e-16 0)
(2.61681e-16 5.56194e-16 0)
(3.10738e-17 4.56447e-16 0)
(-1.44577e-16 2.46113e-16 0)
(-2.76446e-17 1.26851e-16 0)
(1.00994e-17 1.64798e-16 0)
(-1.45887e-16 1.77809e-16 0)
(-2.43033e-16 3.03576e-17 0)
(-1.39837e-16 1.32272e-16 0)
(-3.92391e-17 2.92734e-17 0)
(3.73089e-17 1.57209e-16 0)
(-1.59624e-16 3.52364e-16 0)
(-1.77793e-16 5.57278e-16 0)
(-4.02388e-17 4.25006e-16 0)
(-1.19308e-16 2.47197e-16 0)
(-5.29756e-17 1.33356e-16 0)
(-2.11814e-16 2.64544e-16 0)
(-4.10534e-16 2.02745e-16 0)
(-6.04983e-16 2.41776e-16 0)
(-2.1684e-18 2.1684e-18 0)
(2.85557e-16 2.1684e-18 0)
(6.20809e-16 2.1684e-18 0)
(2.09913e-16 1.66967e-16 0)
(-5.23625e-16 -1.51788e-16 0)
(-5.99018e-16 -5.46436e-16 0)
(-2.70351e-16 -2.40692e-16 0)
(-7.40816e-18 2.1684e-18 0)
(-6.93177e-18 0 0)
(1.36787e-16 -2.1684e-18 0)
(4.01252e-16 2.60208e-17 0)
(2.24748e-16 1.71303e-16 0)
(4.05051e-16 3.68627e-17 0)
(2.25064e-16 2.1684e-16 0)
(2.66527e-16 3.46943e-17 0)
(-5.63212e-17 9.32411e-17 0)
(-3.80803e-16 2.1684e-18 0)
(-1.03881e-16 2.1684e-18 0)
(-1.04312e-16 -1.51788e-17 0)
(-2.85664e-16 0 0)
(4.97868e-17 0 0)
(3.31062e-16 2.60208e-16 0)
(6.73442e-17 3.46943e-17 0)
(-2.26087e-17 -1.01915e-16 0)
(-6.81897e-18 -3.77301e-16 0)
(-1.80663e-16 -1.60461e-16 0)
(-2.0621e-16 -1.14925e-16 0)
(4.06554e-17 0 0)
(1.4814e-16 2.1684e-18 0)
(1.10643e-13 -3.53449e-16 0)
(9.67552e-10 -1.74556e-15 0)
(8.20565e-07 2.0513e-15 0)
(9.30129e-05 -1.57004e-15 0)
(0.00207045 3.93603e-15 0)
(0.013982 3.57885e-15 0)
(0.0438199 6.50581e-15 0)
(0.088656 1.74716e-15 0)
(0.141662 1.64191e-14 0)
(0.198665 -1.43448e-14 0)
(0.257828 2.60672e-14 0)
(0.318348 -5.28594e-15 0)
(0.379846 -4.75653e-15 0)
(0.442142 3.04799e-14 0)
(0.505174 3.80679e-15 0)
(0.568951 2.07909e-15 0)
(0.633494 5.68877e-15 0)
(0.698781 7.42962e-15 0)
(0.764294 1.18744e-15 0)
(0.828969 2.3228e-15 0)
(0.887771 2.16453e-15 0)
(0.929872 -1.47033e-16 0)
(0.940917 4.85957e-16 0)
(0.924368 5.35235e-15 0)
(0.925795 -1.49338e-15 0)
(0.927072 2.2412e-15 0)
(0.927186 2.08898e-15 0)
(0.927287 4.35689e-16 0)
(0.927453 2.84948e-16 0)
(0.927946 -3.04525e-15 0)
(0.928683 -7.24939e-16 0)
(0.929238 1.62094e-15 0)
(0.930557 1.8574e-15 0)
(0.932327 9.0212e-15 0)
(0.92504 2.89319e-15 0)
(0.921837 3.16388e-15 0)
(0.925638 2.02796e-15 0)
(0.929666 3.74954e-15 0)
(0.93357 3.7124e-15 0)
(0.932276 1.81695e-15 0)
(0.914265 2.73188e-15 0)
(0.801599 -2.73766e-15 0)
(0.419224 7.29181e-15 0)
(0.0450597 2.76595e-16 0)
(0.000426025 1.28103e-15 0)
(2.60963e-07 2.99239e-15 0)
(8.59294e-12 -2.67797e-16 0)
(3.89093e-16 3.20923e-16 0)
(7.42742e-17 2.4286e-16 0)
(-3.69133e-17 3.77301e-16 0)
(1.07237e-16 5.41015e-16 0)
(7.57806e-17 6.7654e-16 0)
(2.00457e-16 5.62699e-16 0)
(6.85227e-17 3.63206e-16 0)
(-1.22285e-16 2.67797e-16 0)
(-1.52604e-16 3.69712e-16 0)
(-2.84402e-17 3.69712e-16 0)
(-2.94207e-18 3.54533e-16 0)
(-3.3145e-16 2.0925e-16 0)
(-4.78531e-16 1.68051e-16 0)
(-3.10851e-16 -3.68627e-17 0)
(-8.46483e-18 -1.31188e-16 0)
(2.23267e-16 -1.17093e-16 0)
(9.03013e-17 7.58939e-18 0)
(5.64439e-17 3.49112e-16 0)
(4.01159e-17 5.93056e-16 0)
(-1.74679e-16 4.55363e-16 0)
(-2.73794e-16 8.99885e-17 0)
(-3.75753e-16 -1.35525e-16 0)
(-5.45256e-16 -7.37255e-17 0)
(-6.98224e-16 -1.94071e-16 0)
(0 0 0)
(1.29651e-16 0 0)
(3.11405e-16 -1.04083e-16 0)
(-8.0421e-17 -3.64291e-16 0)
(-6.04796e-16 -5.52941e-16 0)
(-2.94126e-16 -2.40692e-16 0)
(-8.33123e-17 -2.1684e-17 0)
(1.88791e-17 0 0)
(-3.02441e-17 0 0)
(1.5732e-16 2.1684e-18 0)
(4.12542e-16 2.4286e-16 0)
(2.21197e-16 4.25006e-16 0)
(-3.08003e-17 1.69135e-16 0)
(8.91116e-17 -1.23599e-16 0)
(3.01322e-16 -6.50519e-17 0)
(-5.42195e-17 -9.54094e-17 0)
(-4.0894e-16 0 0)
(-1.32796e-16 -9.97462e-17 0)
(-1.87723e-17 -3.77301e-16 0)
(-3.40327e-17 -1.36609e-16 0)
(2.16008e-16 0 0)
(5.66237e-17 1.73472e-17 0)
(-1.82329e-16 -2.25513e-16 0)
(-1.8401e-17 -4.33679e-17 0)
(7.58662e-19 -1.14925e-16 0)
(-6.12737e-18 0 0)
(-4.15907e-18 1.19262e-16 0)
(1.88164e-18 0 0)
(4.64837e-17 0 0)
(1.09459e-13 1.95156e-17 0)
(9.6755e-10 -2.89264e-15 0)
(8.20565e-07 -1.10588e-15 0)
(9.30129e-05 -1.75871e-15 0)
(0.00207045 4.86573e-16 0)
(0.013982 -2.85693e-15 0)
(0.0438199 7.02236e-15 0)
(0.088656 -2.2395e-15 0)
(0.141662 1.33378e-14 0)
(0.198665 -1.5805e-14 0)
(0.257828 2.05431e-14 0)
(0.318348 -1.77199e-15 0)
(0.379846 -9.17299e-15 0)
(0.442142 2.28264e-14 0)
(0.505174 2.21018e-15 0)
(0.568951 -8.29118e-16 0)
(0.633494 2.4846e-15 0)
(0.698781 4.51716e-15 0)
(0.764294 1.45288e-15 0)
(0.828969 2.42891e-15 0)
(0.887771 2.23917e-15 0)
(0.929872 -1.17435e-15 0)
(0.940917 -1.81188e-16 0)
(0.924368 -3.6819e-16 0)
(0.925795 -1.67368e-15 0)
(0.927072 1.42521e-15 0)
(0.927186 -7.96347e-18 0)
(0.927287 -2.18421e-15 0)
(0.927453 -1.21273e-15 0)
(0.927946 -5.48578e-15 0)
(0.928683 -2.60084e-15 0)
(0.929238 -9.87863e-16 0)
(0.930557 -7.35309e-16 0)
(0.932327 7.57088e-15 0)
(0.92504 -8.52731e-16 0)
(0.921837 2.53757e-15 0)
(0.925638 1.41653e-16 0)
(0.929666 3.23305e-15 0)
(0.93357 1.22962e-15 0)
(0.932276 -3.39943e-16 0)
(0.914265 1.98319e-15 0)
(0.801599 -7.31781e-16 0)
(0.419224 7.61819e-15 0)
(0.0450597 -1.37567e-15 0)
(0.000426025 -1.18133e-16 0)
(2.60963e-07 2.20634e-15 0)
(8.59394e-12 -3.68627e-16 0)
(4.04571e-16 5.85467e-17 0)
(9.00553e-17 4.44521e-17 0)
(5.93556e-17 1.23599e-16 0)
(1.63651e-16 2.87313e-16 0)
(3.90393e-17 4.14164e-16 0)
(3.18885e-18 3.63206e-16 0)
(-4.59443e-17 1.37693e-16 0)
(-1.5802e-16 3.25259e-17 0)
(1.67422e-17 2.00577e-16 0)
(1.3892e-16 4.02238e-16 0)
(-3.41085e-17 1.79977e-16 0)
(-4.10645e-16 4.87889e-17 0)
(-6.54887e-16 8.78201e-17 0)
(-4.85036e-16 -8.67359e-17 0)
(-1.526e-16 6.50519e-18 0)
(8.8499e-17 -2.52618e-16 0)
(3.38537e-16 -2.19008e-16 0)
(3.44687e-16 6.07151e-17 0)
(9.76953e-17 3.48028e-16 0)
(-2.50814e-16 2.5045e-16 0)
(-5.03369e-16 -8.67359e-17 0)
(-4.98823e-16 -3.08997e-16 0)
(-3.96858e-16 -2.49366e-16 0)
(-4.73795e-16 -3.5128e-16 0)
(0 0 0)
(1.16851e-16 -4.11995e-17 0)
(6.81567e-18 -4.07659e-16 0)
(-7.04649e-17 -7.76286e-16 0)
(-2.60058e-16 -4.64037e-16 0)
(-9.23177e-17 -5.42099e-17 0)
(1.20918e-16 0 0)
(7.0612e-17 0 0)
(-5.87695e-17 0 0)
(1.40769e-16 0 0)
(4.11073e-16 3.25259e-17 0)
(6.73734e-18 1.84314e-16 0)
(-3.38595e-16 0 0)
(-4.95719e-17 -5.20415e-17 0)
(1.94194e-16 0 0)
(2.7373e-17 -9.32411e-17 0)
(-2.32734e-16 0 0)
(-1.56713e-16 0 0)
(-2.76357e-17 -1.14925e-16 0)
(8.10531e-19 0 0)
(2.06938e-16 0 0)
(1.59298e-18 -9.32411e-17 0)
(-1.69507e-16 -4.55363e-17 0)
(-1.87035e-17 0 0)
(9.08175e-19 0 0)
(-1.6681e-17 0 0)
(-6.58443e-18 0 0)
(-4.12704e-19 0 0)
(1.89242e-17 0 0)
(1.10567e-13 4.85721e-16 0)
(9.67546e-10 -1.2078e-15 0)
(8.20565e-07 -1.15576e-15 0)
(9.30129e-05 -2.4353e-15 0)
(0.00207045 4.23796e-15 0)
(0.013982 -8.28774e-15 0)
(0.0438199 8.52699e-15 0)
(0.088656 -2.16466e-15 0)
(0.141662 9.74349e-15 0)
(0.198665 -1.3066e-14 0)
(0.257828 1.37614e-14 0)
(0.318348 -2.23394e-15 0)
(0.379846 -8.17543e-15 0)
(0.442142 1.47377e-14 0)
(0.505174 1.8356e-15 0)
(0.568951 -1.97657e-15 0)
(0.633494 4.85452e-16 0)
(0.698781 5.21375e-15 0)
(0.764294 -1.08451e-15 0)
(0.828969 2.73685e-15 0)
(0.887771 3.56065e-16 0)
(0.929872 1.67924e-15 0)
(0.940917 2.37154e-15 0)
(0.924368 -1.60087e-15 0)
(0.925795 5.79229e-16 0)
(0.927072 1.72886e-15 0)
(0.927186 -1.21045e-15 0)
(0.927287 -1.4083e-15 0)
(0.927453 -5.69571e-16 0)
(0.927946 -2.71978e-15 0)
(0.928683 -1.65765e-15 0)
(0.929238 -1.84358e-15 0)
(0.930557 -2.33962e-15 0)
(0.932327 2.7868e-15 0)
(0.92504 2.11186e-16 0)
(0.921837 2.20747e-16 0)
(0.925638 -3.24514e-17 0)
(0.929666 1.43229e-15 0)
(0.93357 -1.02536e-15 0)
(0.932276 -8.18627e-16 0)
(0.914265 4.78559e-16 0)
(0.801599 1.2185e-15 0)
(0.419224 2.90883e-15 0)
(0.0450597 -2.6407e-16 0)
(0.000426025 -1.25286e-15 0)
(2.60963e-07 1.85398e-16 0)
(8.59406e-12 -4.44521e-17 0)
(3.7685e-16 0 0)
(2.38875e-17 0 0)
(9.13086e-17 2.1684e-18 0)
(2.38408e-16 0 0)
(8.39702e-17 0 0)
(1.36616e-18 0 0)
(-9.19069e-18 0 0)
(-1.18532e-16 0 0)
(7.19798e-17 3.46943e-17 0)
(2.17664e-16 2.04913e-16 0)
(1.48634e-17 2.1684e-18 0)
(-3.81041e-16 0 0)
(-6.40525e-16 0 0)
(-4.49285e-16 0 0)
(-2.74149e-16 -1.6263e-17 0)
(4.18828e-17 -9.75778e-17 0)
(3.61482e-16 -9.8662e-17 0)
(4.31292e-16 0 0)
(1.59756e-16 0 0)
(-2.80519e-16 2.27682e-17 0)
(-5.49637e-16 5.85467e-17 0)
(-4.64626e-16 -1.0083e-16 0)
(-3.08506e-16 -6.72203e-17 0)
(-2.7105e-16 -1.44198e-16 0)
(2.25513e-16 1.99492e-16 0)
(1.9735e-16 0 0)
(-1.26196e-16 -1.71303e-16 0)
(-8.68326e-17 -4.35848e-16 0)
(-1.46712e-17 -1.51788e-16 0)
(6.59861e-17 0 0)
(3.31128e-16 1.04083e-16 0)
(1.18837e-16 2.9707e-16 0)
(-6.26752e-17 1.66967e-16 0)
(1.70412e-16 -2.1684e-18 0)
(4.25507e-16 0 0)
(5.78493e-17 0 0)
(-3.10971e-16 0 0)
(-2.26971e-17 -7.37255e-17 0)
(2.12525e-16 0 0)
(2.73304e-17 9.32411e-17 0)
(-2.47765e-16 7.80623e-17 0)
(-2.65685e-16 0 0)
(-6.35731e-17 0 0)
(3.91275e-17 0 0)
(2.23822e-16 0 0)
(9.84527e-19 9.32411e-17 0)
(-2.01376e-16 0 0)
(-2.62281e-17 0 0)
(-8.47644e-18 0 0)
(-6.12348e-17 0 0)
(-2.53931e-17 0 0)
(-7.43538e-18 0 0)
(-4.31641e-17 0 0)
(1.10793e-13 8.23991e-17 0)
(9.67545e-10 -1.0842e-17 0)
(8.20565e-07 -5.74625e-16 0)
(9.30129e-05 -1.60474e-16 0)
(0.00207045 5.57169e-15 0)
(0.013982 -1.42693e-14 0)
(0.0438199 1.63315e-14 0)
(0.088656 -4.57724e-15 0)
(0.141662 5.72319e-15 0)
(0.198665 -9.31835e-15 0)
(0.257828 8.22781e-15 0)
(0.318348 -2.79886e-15 0)
(0.379846 -5.1223e-15 0)
(0.442142 6.99298e-15 0)
(0.505174 9.32206e-16 0)
(0.568951 -1.56831e-15 0)
(0.633494 -3.18124e-15 0)
(0.698781 3.73617e-15 0)
(0.764294 -4.65334e-15 0)
(0.828969 2.87986e-15 0)
(0.887771 1.89901e-15 0)
(0.929872 4.8926e-15 0)
(0.940917 2.86618e-15 0)
(0.924368 -4.08045e-17 0)
(0.925795 7.70298e-16 0)
(0.927072 -1.045e-15 0)
(0.927186 -2.42822e-15 0)
(0.927287 -8.16277e-16 0)
(0.927453 -8.10431e-16 0)
(0.927946 -1.56651e-15 0)
(0.928683 -1.1995e-15 0)
(0.929238 -2.0382e-15 0)
(0.930557 -1.39284e-15 0)
(0.932327 -3.43877e-17 0)
(0.92504 1.65104e-15 0)
(0.921837 -1.84914e-15 0)
(0.925638 -8.26739e-16 0)
(0.929666 -7.87835e-16 0)
(0.93357 -2.33433e-16 0)
(0.932276 -5.53431e-16 0)
(0.914265 -8.07794e-16 0)
(0.801599 -5.10545e-17 0)
(0.419224 -1.77577e-15 0)
(0.0450597 5.99115e-16 0)
(0.000426025 -9.17966e-16 0)
(2.60963e-07 -2.80807e-16 0)
(8.59405e-12 -5.63783e-17 0)
(4.29896e-16 -1.36609e-16 0)
(1.22182e-16 -1.73472e-16 0)
(7.90644e-18 -4.33679e-17 0)
(-2.47847e-17 -1.76724e-16 0)
(-2.67228e-19 -3.13333e-16 0)
(6.90534e-17 -2.94902e-16 0)
(2.01682e-16 -2.43945e-16 0)
(9.23327e-17 -1.07336e-16 0)
(1.44119e-16 5.20415e-17 0)
(1.21838e-16 3.57785e-17 0)
(-6.40449e-18 0 0)
(-3.41019e-16 0 0)
(-5.80934e-16 4.44521e-17 0)
(-5.43494e-16 1.46367e-16 0)
(-3.45299e-16 -5.09573e-17 0)
(6.89715e-17 -1.0842e-18 0)
(4.22106e-16 0 0)
(4.9267e-16 -1.10588e-16 0)
(3.0137e-16 -2.37439e-16 0)
(-5.89464e-17 -2.49366e-17 0)
(-4.33975e-16 2.27682e-16 0)
(-6.35409e-16 1.25767e-16 0)
(-4.81523e-16 2.02745e-16 0)
(-3.83806e-16 2.01661e-16 0)
(5.50773e-16 4.79216e-16 0)
(2.92355e-16 1.84314e-16 0)
(-1.62745e-16 1.47451e-16 0)
(-2.723e-16 -1.47451e-16 0)
(-6.14946e-17 2.1684e-18 0)
(2.43124e-16 2.1684e-17 0)
(4.03948e-16 3.83806e-16 0)
(1.48859e-16 6.3534e-16 0)
(-4.00371e-17 4.4669e-16 0)
(2.12303e-16 2.01661e-16 0)
(3.41363e-16 1.36609e-16 0)
(7.53557e-17 -1.36609e-16 0)
(-2.27376e-16 -7.80623e-17 0)
(-1.68096e-17 -2.66713e-16 0)
(2.21101e-16 -6.28835e-17 0)
(1.14828e-17 3.46943e-17 0)
(-2.71266e-16 3.18754e-16 0)
(-3.94296e-16 1.36609e-16 0)
(-1.28845e-16 0 0)
(6.43248e-17 0 0)
(2.24061e-16 0 0)
(3.05279e-18 -3.03576e-17 0)
(-2.27064e-16 0 0)
(-4.62546e-17 0 0)
(-6.76367e-17 0 0)
(-1.60786e-16 0 0)
(-7.65594e-17 0 0)
(-2.79737e-17 0 0)
(-1.21284e-16 0 0)
(1.106e-13 -2.14671e-16 0)
(9.67546e-10 1.42897e-15 0)
(8.20565e-07 -1.65882e-15 0)
(9.30129e-05 5.79875e-15 0)
(0.00207045 6.01048e-15 0)
(0.013982 -1.71284e-14 0)
(0.0438199 2.03536e-14 0)
(0.088656 -6.577e-15 0)
(0.141662 1.69308e-15 0)
(0.198665 -4.87853e-15 0)
(0.257828 4.79222e-15 0)
(0.318348 -3.32374e-15 0)
(0.379846 -9.94534e-16 0)
(0.442142 -1.47953e-15 0)
(0.505174 -3.2712e-16 0)
(0.568951 -1.45141e-15 0)
(0.633494 -5.8474e-15 0)
(0.698781 2.464e-15 0)
(0.764294 -5.40524e-15 0)
(0.828969 2.02178e-15 0)
(0.887771 3.43829e-15 0)
(0.929872 5.67911e-15 0)
(0.940917 4.02025e-15 0)
(0.924368 1.95229e-15 0)
(0.925795 1.28299e-15 0)
(0.927072 -2.84247e-15 0)
(0.927186 -4.45731e-15 0)
(0.927287 -7.3875e-16 0)
(0.927453 -1.90224e-15 0)
(0.927946 -1.32316e-15 0)
(0.928683 -1.30252e-16 0)
(0.929238 -1.72469e-15 0)
(0.930557 1.6186e-16 0)
(0.932327 -1.46984e-15 0)
(0.92504 1.28409e-15 0)
(0.921837 -1.40508e-15 0)
(0.925638 -4.23929e-16 0)
(0.929666 -2.59579e-15 0)
(0.93357 -5.17544e-16 0)
(0.932276 -6.63503e-16 0)
(0.914265 -2.03971e-15 0)
(0.801599 -1.77613e-15 0)
(0.419224 -5.56089e-15 0)
(0.0450597 -1.06463e-16 0)
(0.000426025 1.46311e-15 0)
(2.60963e-07 -2.02528e-15 0)
(8.59392e-12 6.28835e-17 0)
(3.97193e-16 -3.10081e-16 0)
(1.18137e-16 -3.66459e-16 0)
(7.06091e-18 -2.52618e-16 0)
(-1.15844e-16 -3.93564e-16 0)
(4.44869e-18 -5.49689e-16 0)
(1.11516e-16 -5.2692e-16 0)
(2.72216e-16 -4.71626e-16 0)
(1.54223e-16 -2.9707e-16 0)
(1.97001e-16 -9.10727e-17 0)
(1.57877e-16 0 0)
(2.05294e-17 0 0)
(-1.09533e-16 -6.72203e-17 0)
(-3.86873e-16 1.19262e-16 0)
(-5.78532e-16 3.33933e-16 0)
(-3.44556e-16 1.51788e-16 0)
(3.65201e-17 2.38524e-17 0)
(3.66621e-16 9.10727e-17 0)
(5.18968e-16 -2.81892e-16 0)
(3.5731e-16 -4.56447e-16 0)
(1.0628e-16 -2.05998e-16 0)
(-3.58976e-16 6.72203e-17 0)
(-6.04808e-16 3.24175e-16 0)
(-4.99078e-16 4.30427e-16 0)
(-6.00646e-16 4.21753e-16 0)
(7.67612e-16 2.49366e-16 0)
(3.69252e-16 1.04083e-16 0)
(-1.6293e-16 1.30104e-16 0)
(-3.22932e-16 2.14671e-16 0)
(1.38878e-17 1.01915e-16 0)
(3.90871e-16 2.62376e-16 0)
(5.86403e-16 2.01661e-16 0)
(2.23309e-16 3.33933e-16 0)
(-2.21849e-16 2.7105e-16 0)
(2.82598e-16 3.03576e-16 0)
(-1.912e-17 6.50519e-18 0)
(-1.46837e-16 -2.53702e-16 0)
(-2.03319e-16 -8.67359e-18 0)
(-4.54249e-17 9.54094e-17 0)
(2.45378e-16 8.67359e-18 0)
(2.15289e-16 -1.69135e-16 0)
(-1.12316e-16 1.14925e-16 0)
(-4.82208e-16 2.34187e-16 0)
(-1.94422e-16 8.67359e-17 0)
(6.64006e-17 1.92987e-16 0)
(-1.69672e-16 3.90311e-17 0)
(-1.0865e-16 -2.14671e-16 0)
(1.33012e-16 3.68627e-17 0)
(7.88761e-17 2.60208e-16 0)
(-1.96937e-16 1.17093e-16 0)
(-3.26233e-16 2.38524e-17 0)
(-1.80131e-16 0 0)
(-6.88866e-17 0 0)
(-1.84979e-16 2.60208e-17 0)
(1.10086e-13 -5.6812e-16 0)
(9.67549e-10 1.71737e-15 0)
(8.20565e-07 -1.38344e-15 0)
(9.30129e-05 7.28639e-15 0)
(0.00207045 8.06755e-15 0)
(0.013982 -1.50329e-14 0)
(0.0438199 1.97279e-14 0)
(0.088656 -8.34756e-15 0)
(0.141662 -3.42779e-17 0)
(0.198665 -2.04559e-15 0)
(0.257828 2.82979e-15 0)
(0.318348 -3.97018e-15 0)
(0.379846 4.13533e-15 0)
(0.442142 -7.61838e-15 0)
(0.505174 -1.44068e-15 0)
(0.568951 -1.51615e-15 0)
(0.633494 -5.66297e-15 0)
(0.698781 -2.23722e-16 0)
(0.764294 -4.33481e-15 0)
(0.828969 5.14384e-16 0)
(0.887771 -3.6463e-16 0)
(0.929872 4.67827e-15 0)
(0.940917 4.8644e-15 0)
(0.924368 3.19098e-15 0)
(0.925795 -1.95506e-16 0)
(0.927072 -7.19115e-16 0)
(0.927186 -3.43066e-15 0)
(0.927287 -3.93081e-16 0)
(0.927453 -2.26467e-15 0)
(0.927946 -6.78201e-16 0)
(0.928683 -5.40561e-16 0)
(0.929238 -1.20331e-15 0)
(0.930557 3.16574e-16 0)
(0.932327 -1.40897e-15 0)
(0.92504 4.74294e-17 0)
(0.921837 -1.3096e-15 0)
(0.925638 -8.3189e-16 0)
(0.929666 -3.14826e-15 0)
(0.93357 -3.31054e-15 0)
(0.932276 -1.40841e-15 0)
(0.914265 -2.59863e-15 0)
(0.801599 -2.72858e-15 0)
(0.419224 -4.15945e-15 0)
(0.0450597 -1.25042e-15 0)
(0.000426025 2.84385e-15 0)
(2.60963e-07 -1.6675e-15 0)
(8.59337e-12 1.89735e-16 0)
(3.70089e-16 -8.99885e-17 0)
(1.75107e-16 -1.74556e-16 0)
(-8.06714e-18 -1.10588e-16 0)
(-1.64453e-16 -2.26597e-16 0)
(1.43966e-17 -2.78639e-16 0)
(1.55604e-16 -2.88397e-16 0)
(3.35801e-16 -2.58039e-16 0)
(2.33088e-16 -2.67797e-16 0)
(2.71009e-16 -1.10588e-16 0)
(1.8985e-16 0 0)
(4.29161e-17 -9.43252e-17 0)
(6.19674e-17 -2.39608e-16 0)
(-9.91021e-17 -8.67359e-18 0)
(-3.3585e-16 2.32018e-16 0)
(-2.73879e-16 3.50196e-16 0)
(-7.34851e-17 1.50704e-16 0)
(1.86954e-16 3.25259e-17 0)
(2.59386e-16 -1.51788e-16 0)
(4.38856e-16 -2.72134e-16 0)
(2.17426e-16 -1.02999e-16 0)
(-1.85152e-16 -1.05167e-16 0)
(-4.50616e-16 1.65882e-16 0)
(-5.64604e-16 2.38524e-16 0)
(-7.40507e-16 2.89481e-16 0)
(5.48604e-16 -2.1684e-18 0)
(2.53496e-16 2.55871e-16 0)
(-9.59715e-17 3.12249e-16 0)
(-4.40044e-17 4.96563e-16 0)
(1.96211e-16 3.62122e-16 0)
(4.25519e-16 5.83299e-16 0)
(4.04038e-16 3.46943e-16 0)
(1.04765e-16 8.89043e-17 0)
(-3.76963e-17 1.97324e-16 0)
(-8.46926e-17 -6.28835e-17 0)
(-3.24754e-16 -3.18754e-16 0)
(-7.55285e-17 -6.93887e-17 0)
(-2.08837e-16 2.2985e-16 0)
(6.14413e-18 4.61868e-16 0)
(2.30078e-16 2.4286e-16 0)
(9.03712e-17 1.30104e-17 0)
(-2.97619e-17 1.32272e-16 0)
(-2.98812e-16 4.03322e-16 0)
(-7.57304e-17 2.99239e-16 0)
(6.52297e-17 4.81384e-16 0)
(-1.71308e-16 2.49366e-16 0)
(-1.15333e-16 6.28835e-17 0)
(1.47054e-16 2.66713e-16 0)
(1.57557e-16 5.8113e-16 0)
(-1.97667e-16 3.75133e-16 0)
(-5.67812e-16 2.53702e-16 0)
(-3.75677e-16 2.81892e-17 0)
(-9.3447e-17 6.50519e-17 0)
(-2.05589e-16 1.49619e-16 0)
(1.09165e-13 -3.59954e-16 0)
(9.67551e-10 -3.25259e-17 0)
(8.20565e-07 -4.07659e-16 0)
(9.30129e-05 4.38051e-16 0)
(0.00207045 1.05591e-14 0)
(0.013982 -1.34574e-14 0)
(0.0438199 1.05425e-14 0)
(0.088656 -6.62729e-15 0)
(0.141662 -4.01541e-16 0)
(0.198665 1.60302e-15 0)
(0.257828 7.25067e-16 0)
(0.318348 -4.72388e-15 0)
(0.379846 8.65607e-15 0)
(0.442142 -1.22233e-14 0)
(0.505174 -4.11527e-15 0)
(0.568951 -9.67604e-16 0)
(0.633494 -4.5277e-15 0)
(0.698781 -3.10161e-15 0)
(0.764294 -4.60242e-15 0)
(0.828969 9.12282e-16 0)
(0.887771 -1.65185e-16 0)
(0.929872 4.09364e-15 0)
(0.940917 2.2177e-15 0)
(0.924368 2.6039e-15 0)
(0.925795 -2.69905e-15 0)
(0.927072 -5.57758e-16 0)
(0.927186 -2.57539e-15 0)
(0.927287 -2.58466e-15 0)
(0.927453 -2.26953e-15 0)
(0.927946 9.77407e-17 0)
(0.928683 -1.87066e-15 0)
(0.929238 -5.37664e-16 0)
(0.930557 -5.10386e-16 0)
(0.932327 8.15547e-16 0)
(0.92504 -8.83685e-17 0)
(0.921837 -2.74805e-15 0)
(0.925638 -1.96511e-15 0)
(0.929666 -9.64108e-16 0)
(0.93357 -3.95607e-15 0)
(0.932276 -2.31151e-15 0)
(0.914265 -1.3045e-15 0)
(0.801599 -2.45969e-15 0)
(0.419224 -1.09362e-15 0)
(0.0450597 -1.14291e-15 0)
(0.000426025 -6.08003e-16 0)
(2.60963e-07 1.09829e-15 0)
(8.5933e-12 5.97393e-16 0)
(5.06503e-16 2.45029e-16 0)
(6.79169e-17 4.01153e-17 0)
(-1.10422e-16 -6.17993e-17 0)
(-5.23548e-17 1.04083e-16 0)
(1.14357e-16 1.65882e-16 0)
(1.21533e-17 6.28835e-17 0)
(1.05933e-16 6.28835e-17 0)
(2.56212e-16 -4.33679e-17 0)
(2.8967e-16 -9.75778e-18 0)
(1.00429e-16 -6.50519e-18 0)
(-6.19495e-17 -1.66967e-16 0)
(8.07979e-17 -5.63783e-17 0)
(1.29246e-16 0 0)
(-4.5432e-17 -1.95156e-17 0)
(-1.92028e-16 1.51788e-16 0)
(-1.29286e-16 4.98731e-17 0)
(4.56438e-17 1.76724e-16 0)
(1.98521e-16 2.23345e-16 0)
(3.23776e-16 8.56517e-17 0)
(1.04832e-16 -1.40946e-16 0)
(-2.54175e-16 -2.37439e-16 0)
(-4.70959e-16 -1.51788e-17 0)
(-5.13582e-16 3.14417e-17 0)
(-6.51603e-16 1.22514e-16 0)
(7.54602e-16 -2.25513e-16 0)
(3.64171e-16 -9.97462e-17 0)
(-9.19183e-17 -3.46943e-17 0)
(-1.25787e-16 2.23345e-16 0)
(2.24272e-16 1.79977e-16 0)
(5.6769e-16 2.99239e-16 0)
(2.15047e-16 -3.90311e-17 0)
(-6.2091e-17 -3.94648e-16 0)
(-2.61178e-16 -2.34187e-16 0)
(-4.49855e-16 -4.33679e-16 0)
(-1.09e-16 -9.75778e-17 0)
(1.76825e-16 2.03829e-16 0)
(-2.58567e-17 4.98731e-17 0)
(-2.11639e-16 2.45029e-16 0)
(-3.54016e-17 -4.33679e-18 0)
(2.74364e-16 -6.28835e-17 0)
(1.84162e-16 -1.60461e-16 0)
(7.16294e-19 1.95156e-17 0)
(8.02456e-18 4.33679e-18 0)
(4.82893e-17 5.85467e-17 0)
(-1.35589e-16 -1.17093e-16 0)
(-9.28423e-17 4.33679e-18 0)
(1.46638e-16 8.67359e-17 0)
(4.42302e-17 2.08166e-16 0)