/*--------------------------------*- C++ -*----------------------------------*\
| =========                 |                                                 |
| \\      /  F ield         | OpenFOAM: The Open Source CFD Toolbox           |
|  \\    /   O peration     | Version:  4.1                                   |
|   \\  /    A nd           | Web:      www.OpenFOAM.org                      |
|    \\/     M anipulation  |                                                 |
\*---------------------------------------------------------------------------*/
FoamFile
{
    version     2.0;
    format      ascii;
    class       volVectorField;
    location    "0.5";
    object      U;
}
// * * * * * * * * * * * * * * * * * * * * * * * * * * * * * * * * * * * * * //

dimensions      [0 1 -1 0 0 0 0];

internalField   nonuniform List<vector> 
10000
(
(0 0 0)
(2.28726e-16 0 0)
(3.2155e-16 0 0)
(1.04673e-16 1.60461e-16 0)
(-1.21162e-16 0 0)
(-3.20001e-16 0 0)
(-3.11072e-16 0 0)
(-7.61649e-17 0 0)
(-1.1827e-18 0 0)
(2.65493e-16 1.58293e-16 0)
(5.35855e-16 0 0)
(2.05825e-16 -1.56125e-16 0)
(-1.32099e-16 0 0)
(3.22714e-15 2.1684e-18 0)
(4.95559e-11 -1.10588e-16 0)
(7.31067e-08 1.41163e-15 0)
(1.35464e-05 1.72823e-15 0)
(0.000453039 9.29948e-15 0)
(0.00414149 2.23259e-15 0)
(0.0157986 1.6091e-14 0)
(0.0358107 8.67193e-15 0)
(0.0609367 6.91059e-15 0)
(0.0885644 -4.32606e-15 0)
(0.117448 1.10046e-14 0)
(0.14706 -5.59149e-15 0)
(0.177158 7.30871e-15 0)
(0.207606 -2.57192e-14 0)
(0.238322 -2.37416e-14 0)
(0.269248 -2.27196e-16 0)
(0.300345 2.54549e-14 0)
(0.331586 6.8606e-15 0)
(0.362951 3.40864e-14 0)
(0.394427 1.73907e-14 0)
(0.426006 6.18845e-14 0)
(0.457683 -2.50375e-14 0)
(0.489456 2.74424e-14 0)
(0.521325 2.50416e-14 0)
(0.553292 3.4083e-14 0)
(0.585358 -2.83714e-14 0)
(0.617525 4.76631e-15 0)
(0.649791 -2.41071e-14 0)
(0.682151 3.30609e-14 0)
(0.714592 -1.51423e-14 0)
(0.74709 -6.996e-15 0)
(0.779606 4.69274e-14 0)
(0.812054 2.69649e-13 0)
(0.84423 -2.70551e-13 0)
(0.875522 3.61686e-13 0)
(0.904066 3.1166e-13 0)
(0.925267 -2.60945e-13 0)
(0.933645 -6.37116e-15 0)
(0.931068 3.09559e-14 0)
(0.925846 6.35528e-14 0)
(0.927101 8.45112e-14 0)
(0.927641 5.29828e-14 0)
(0.92782 4.70829e-14 0)
(0.928001 3.18338e-14 0)
(0.928214 1.72635e-14 0)
(0.928424 6.76349e-15 0)
(0.928417 6.13714e-15 0)
(0.928204 9.59987e-15 0)
(0.928122 1.47294e-14 0)
(0.928141 1.436e-14 0)
(0.928171 1.90549e-14 0)
(0.928129 1.71962e-14 0)
(0.928069 1.55332e-14 0)
(0.928012 1.24178e-14 0)
(0.927959 8.8619e-15 0)
(0.927923 4.53505e-15 0)
(0.9279 6.00156e-15 0)
(0.927885 5.65539e-15 0)
(0.928029 9.71018e-15 0)
(0.92841 2.39406e-15 0)
(0.928883 -5.54034e-15 0)
(0.928862 -1.93318e-14 0)
(0.927257 -3.2668e-14 0)
(0.928297 -4.71545e-14 0)
(0.929671 -3.64388e-14 0)
(0.927731 -2.19176e-14 0)
(0.926555 -6.7968e-15 0)
(0.926173 -2.90526e-15 0)
(0.925904 -2.04261e-15 0)
(0.925818 -1.35447e-15 0)
(0.926058 -2.18828e-15 0)
(0.926803 -3.83858e-15 0)
(0.927914 -1.00461e-14 0)
(0.928497 -1.22252e-14 0)
(0.928333 -1.41624e-14 0)
(0.928003 -1.44579e-14 0)
(0.927435 -1.43516e-14 0)
(0.926119 -1.23934e-14 0)
(0.920845 -8.49052e-15 0)
(0.892238 -5.7524e-15 0)
(0.748421 -2.81224e-15 0)
(0.335445 -6.44177e-17 0)
(0.0264171 -2.64995e-17 0)
(0.000179906 1.00055e-15 0)
(7.81891e-08 3.97901e-16 0)
(2.41178e-12 2.53702e-16 0)
(-2.51534e-16 2.6346e-16 0)
(0 0 0)
(2.40619e-16 0 0)
(3.21176e-16 1.38777e-16 0)
(1.06019e-16 3.44775e-16 0)
(-1.20779e-16 1.30104e-16 0)
(-3.24926e-16 2.7105e-16 0)
(-3.43321e-16 5.85467e-17 0)
(-8.23975e-17 0 0)
(-5.17302e-18 0 0)
(2.56446e-16 0 0)
(5.63029e-16 0 0)
(2.09992e-16 0 0)
(-1.11707e-16 0 0)
(3.24597e-15 2.1684e-18 0)
(4.95556e-11 -2.60208e-16 0)
(7.31067e-08 4.15031e-15 0)
(1.35464e-05 5.48394e-15 0)
(0.000453039 1.96163e-14 0)
(0.00414149 -1.19898e-15 0)
(0.0157986 3.42565e-14 0)
(0.0358107 -1.29235e-14 0)
(0.0609367 9.70474e-15 0)
(0.0885644 3.56257e-15 0)
(0.117448 1.79482e-14 0)
(0.14706 4.31013e-15 0)
(0.177158 -5.34962e-15 0)
(0.207606 -1.53239e-14 0)
(0.238322 1.47308e-14 0)
(0.269248 1.28174e-14 0)
(0.300345 -8.18717e-15 0)
(0.331586 1.30166e-14 0)
(0.362951 2.55388e-14 0)
(0.394427 5.22838e-15 0)
(0.426006 4.01419e-14 0)
(0.457683 -1.43481e-14 0)
(0.489456 3.26991e-14 0)
(0.521325 1.88194e-14 0)
(0.553292 1.1645e-14 0)
(0.585358 1.51524e-16 0)
(0.617525 3.0631e-14 0)
(0.649791 -6.21011e-15 0)
(0.682151 2.85111e-14 0)
(0.714592 -1.12311e-14 0)
(0.74709 2.97229e-14 0)
(0.779606 3.79708e-14 0)
(0.812054 1.30614e-13 0)
(0.84423 -9.60128e-14 0)
(0.875522 1.88647e-13 0)
(0.904066 1.26307e-13 0)
(0.925267 -6.89091e-14 0)
(0.933645 1.83364e-14 0)
(0.931068 3.83088e-14 0)
(0.925846 4.95722e-14 0)
(0.927101 5.95126e-14 0)
(0.927641 4.49768e-14 0)
(0.92782 4.38202e-14 0)
(0.928001 3.08203e-14 0)
(0.928214 1.7792e-14 0)
(0.928424 8.79442e-15 0)
(0.928417 1.04388e-14 0)
(0.928204 1.30595e-14 0)
(0.928122 1.51455e-14 0)
(0.928141 2.55594e-14 0)
(0.928171 2.42991e-14 0)
(0.928129 2.00714e-14 0)
(0.928069 1.7515e-14 0)
(0.928012 1.45129e-14 0)
(0.927959 9.94008e-15 0)
(0.927923 6.70018e-15 0)
(0.9279 9.36506e-15 0)
(0.927885 4.10746e-15 0)
(0.928029 3.53523e-15 0)
(0.92841 3.60298e-15 0)
(0.928883 -1.32594e-15 0)
(0.928862 -4.81261e-15 0)
(0.927257 -1.48384e-14 0)
(0.928297 -2.45159e-14 0)
(0.929671 -2.25843e-14 0)
(0.927731 -1.18387e-14 0)
(0.926555 -2.42324e-15 0)
(0.926173 -5.02626e-16 0)
(0.925904 1.85206e-15 0)
(0.925818 5.37172e-15 0)
(0.926058 2.66528e-15 0)
(0.926803 2.12288e-16 0)
(0.927914 -7.51261e-15 0)
(0.928497 -9.64232e-15 0)
(0.928333 -8.5166e-15 0)
(0.928003 -1.19407e-14 0)
(0.927435 -9.75445e-15 0)
(0.926119 -1.24098e-14 0)
(0.920845 -1.00605e-14 0)
(0.892238 -6.90824e-15 0)
(0.748421 -3.80257e-15 0)
(0.335445 1.41306e-15 0)
(0.0264171 -1.13524e-15 0)
(0.000179906 1.84826e-15 0)
(7.81891e-08 1.3108e-15 0)
(2.41154e-12 3.63206e-16 0)
(-4.66205e-16 4.77047e-16 0)
(0 0 0)
(2.59728e-16 0 0)
(5.34202e-16 0 0)
(1.22381e-16 1.0842e-16 0)
(-3.51491e-16 3.44775e-16 0)
(-3.25825e-16 6.02814e-16 0)
(-3.63146e-16 2.81892e-16 0)
(-6.50108e-17 0 0)
(-1.68333e-17 0 0)
(2.57284e-16 0 0)
(5.90562e-16 0 0)
(2.32538e-16 2.1684e-18 0)
(-1.05299e-16 1.64798e-16 0)
(3.33482e-15 3.44775e-16 0)
(4.95547e-11 -2.05564e-15 0)
(7.31067e-08 1.35308e-15 0)
(1.35464e-05 1.24597e-14 0)
(0.000453039 2.06771e-14 0)
(0.00414149 1.82567e-15 0)
(0.0157986 4.29393e-14 0)
(0.0358107 -2.0423e-14 0)
(0.0609367 9.06301e-15 0)
(0.0885644 1.03919e-14 0)
(0.117448 2.36525e-14 0)
(0.14706 1.36276e-14 0)
(0.177158 -3.75029e-15 0)
(0.207606 -1.46343e-14 0)
(0.238322 2.19863e-14 0)
(0.269248 2.02218e-14 0)
(0.300345 -1.66811e-14 0)
(0.331586 1.40424e-14 0)
(0.362951 2.23676e-14 0)
(0.394427 4.42767e-15 0)
(0.426006 3.30299e-14 0)
(0.457683 -8.84697e-15 0)
(0.489456 3.3534e-14 0)
(0.521325 1.88676e-14 0)
(0.553292 3.24389e-15 0)
(0.585358 9.71395e-15 0)
(0.617525 3.26557e-14 0)
(0.649791 -1.44825e-15 0)
(0.682151 2.34302e-14 0)
(0.714592 -9.18569e-15 0)
(0.74709 4.43751e-14 0)
(0.779606 3.4243e-14 0)
(0.812054 8.14097e-14 0)
(0.84423 -3.87453e-14 0)
(0.875522 1.16367e-13 0)
(0.904066 9.29795e-14 0)
(0.925267 -2.23657e-14 0)
(0.933645 2.32015e-14 0)
(0.931068 3.77606e-14 0)
(0.925846 4.6318e-14 0)
(0.927101 5.619e-14 0)
(0.927641 3.67555e-14 0)
(0.92782 3.43781e-14 0)
(0.928001 2.26716e-14 0)
(0.928214 1.53917e-14 0)
(0.928424 1.00929e-14 0)
(0.928417 1.14657e-14 0)
(0.928204 1.80206e-14 0)
(0.928122 1.91643e-14 0)
(0.928141 3.21652e-14 0)
(0.928171 2.239e-14 0)
(0.928129 1.77467e-14 0)
(0.928069 1.54579e-14 0)
(0.928012 1.42144e-14 0)
(0.927959 8.47921e-15 0)
(0.927923 5.88042e-15 0)
(0.9279 1.01626e-14 0)
(0.927885 2.52395e-15 0)
(0.928029 2.16681e-15 0)
(0.92841 3.7373e-15 0)
(0.928883 -2.76646e-15 0)
(0.928862 1.57603e-15 0)
(0.927257 -1.17229e-14 0)
(0.928297 -1.68083e-14 0)
(0.929671 -7.92431e-15 0)
(0.927731 -2.87482e-15 0)
(0.926555 4.85163e-15 0)
(0.926173 6.11991e-15 0)
(0.925904 7.03896e-15 0)
(0.925818 9.06625e-15 0)
(0.926058 5.96486e-15 0)
(0.926803 -6.97226e-16 0)
(0.927914 -1.09571e-14 0)
(0.928497 -8.31134e-15 0)
(0.928333 -6.50003e-15 0)
(0.928003 -1.19458e-14 0)
(0.927435 -7.13347e-15 0)
(0.926119 -6.76502e-15 0)
(0.920845 -3.97735e-15 0)
(0.892238 -1.37881e-15 0)
(0.748421 1.24116e-15 0)
(0.335445 2.79226e-15 0)
(0.0264171 4.87592e-16 0)
(0.000179906 -1.53931e-16 0)
(7.81891e-08 1.19587e-15 0)
(2.4115e-12 2.93818e-16 0)
(-7.01476e-16 7.1015e-16 0)
(-2.1684e-18 -2.1684e-18 0)
(2.8564e-16 -2.1684e-18 0)
(6.04949e-16 -2.1684e-18 0)
(1.93587e-16 3.90311e-17 0)
(-3.00774e-16 2.86228e-16 0)
(-6.92203e-16 2.2985e-16 0)
(-3.79282e-16 -2.1684e-18 0)
(-3.24346e-17 -2.1684e-18 0)
(-2.92589e-17 0 0)
(2.14974e-16 0 0)
(4.40508e-16 -4.33679e-18 0)
(2.64479e-16 -2.86963e-31 0)
(1.59388e-16 2.88397e-16 0)
(3.42555e-15 6.8955e-16 0)
(4.95513e-11 -9.99631e-16 0)
(7.31067e-08 2.8471e-15 0)
(1.35464e-05 1.62241e-14 0)
(0.000453039 1.81456e-14 0)
(0.00414149 3.48379e-15 0)
(0.0157986 4.48469e-14 0)
(0.0358107 -2.2418e-14 0)
(0.0609367 1.06856e-14 0)
(0.0885644 1.08257e-14 0)
(0.117448 2.21446e-14 0)
(0.14706 1.61252e-14 0)
(0.177158 -1.01741e-15 0)
(0.207606 -1.4677e-14 0)
(0.238322 2.37589e-14 0)
(0.269248 2.4737e-14 0)
(0.300345 -1.86621e-14 0)
(0.331586 1.38919e-14 0)
(0.362951 2.09301e-14 0)
(0.394427 3.34065e-15 0)
(0.426006 3.00143e-14 0)
(0.457683 -5.75093e-15 0)
(0.489456 3.18391e-14 0)
(0.521325 1.60523e-14 0)
(0.553292 1.9311e-16 0)
(0.585358 1.36536e-14 0)
(0.617525 2.88961e-14 0)
(0.649791 4.01882e-15 0)
(0.682151 1.62714e-14 0)
(0.714592 -4.59955e-15 0)
(0.74709 5.16671e-14 0)
(0.779606 2.72964e-14 0)
(0.812054 6.12703e-14 0)
(0.84423 -1.45261e-14 0)
(0.875522 7.0154e-14 0)
(0.904066 7.21935e-14 0)
(0.925267 -4.26986e-15 0)
(0.933645 3.0262e-14 0)
(0.931068 3.70554e-14 0)
(0.925846 4.55162e-14 0)
(0.927101 4.92551e-14 0)
(0.927641 3.27873e-14 0)
(0.92782 2.96617e-14 0)
(0.928001 2.07963e-14 0)
(0.928214 1.96199e-14 0)
(0.928424 1.16985e-14 0)
(0.928417 1.2641e-14 0)
(0.928204 1.77584e-14 0)
(0.928122 1.75987e-14 0)
(0.928141 3.40058e-14 0)
(0.928171 2.11995e-14 0)
(0.928129 1.31099e-14 0)
(0.928069 1.34685e-14 0)
(0.928012 1.4883e-14 0)
(0.927959 9.60207e-15 0)
(0.927923 7.86907e-15 0)
(0.9279 1.00481e-14 0)
(0.927885 3.04686e-15 0)
(0.928029 2.87653e-15 0)
(0.92841 7.93719e-15 0)
(0.928883 -1.67092e-15 0)
(0.928862 6.25034e-15 0)
(0.927257 -1.12407e-14 0)
(0.928297 -4.83379e-15 0)
(0.929671 -1.67612e-15 0)
(0.927731 2.63346e-15 0)
(0.926555 7.83005e-15 0)
(0.926173 9.90451e-15 0)
(0.925904 1.05443e-14 0)
(0.925818 9.30739e-15 0)
(0.926058 6.38653e-15 0)
(0.926803 -3.04365e-16 0)
(0.927914 -8.59627e-15 0)
(0.928497 -4.75969e-15 0)
(0.928333 -3.80771e-15 0)
(0.928003 -8.13572e-15 0)
(0.927435 -4.29875e-15 0)
(0.926119 -3.57169e-15 0)
(0.920845 -1.41774e-15 0)
(0.892238 -5.43026e-16 0)
(0.748421 1.69974e-15 0)
(0.335445 6.0404e-15 0)
(0.0264171 3.35378e-15 0)
(0.000179906 5.37675e-16 0)
(7.81891e-08 4.71626e-16 0)
(2.41182e-12 5.20415e-16 0)
(-1.01806e-15 4.40184e-16 0)
(-2.1684e-18 2.1684e-18 0)
(3.12144e-16 2.1684e-18 0)
(6.5667e-16 2.1684e-18 0)
(2.08276e-16 1.60461e-16 0)
(-6.39674e-16 -1.58293e-16 0)
(-6.57199e-16 -5.44268e-16 0)
(-3.14157e-16 -2.40692e-16 0)
(1.43711e-17 2.1684e-18 0)
(-3.21202e-17 0 0)
(2.2809e-16 -2.1684e-18 0)
(4.67902e-16 1.47451e-16 0)
(2.88014e-16 3.33933e-16 0)
(2.51495e-16 1.84314e-16 0)
(3.7026e-15 3.62122e-16 0)
(4.95509e-11 1.50704e-15 0)
(7.31067e-08 2.47414e-15 0)
(1.35464e-05 1.6235e-14 0)
(0.000453039 1.15294e-14 0)
(0.00414149 2.43931e-15 0)
(0.0157986 4.21636e-14 0)
(0.0358107 -2.50747e-14 0)
(0.0609367 1.22602e-14 0)
(0.0885644 8.59834e-15 0)
(0.117448 1.67388e-14 0)
(0.14706 1.70635e-14 0)
(0.177158 3.41452e-15 0)
(0.207606 -1.14181e-14 0)
(0.238322 2.27095e-14 0)
(0.269248 2.56075e-14 0)
(0.300345 -2.06557e-14 0)
(0.331586 1.09767e-14 0)
(0.362951 1.48096e-14 0)
(0.394427 1.76678e-15 0)
(0.426006 2.70664e-14 0)
(0.457683 -6.07205e-15 0)
(0.489456 2.91406e-14 0)
(0.521325 1.05095e-14 0)
(0.553292 -2.20216e-15 0)
(0.585358 1.85397e-14 0)
(0.617525 2.60971e-14 0)
(0.649791 1.14706e-14 0)
(0.682151 1.09513e-14 0)
(0.714592 1.92052e-15 0)
(0.74709 4.85408e-14 0)
(0.779606 2.39588e-14 0)
(0.812054 4.75831e-14 0)
(0.84423 -1.20663e-14 0)
(0.875522 5.21222e-14 0)
(0.904066 5.07902e-14 0)
(0.925267 8.94324e-15 0)
(0.933645 3.12169e-14 0)
(0.931068 3.20784e-14 0)
(0.925846 3.82223e-14 0)
(0.927101 3.63579e-14 0)
(0.927641 2.83765e-14 0)
(0.92782 2.52308e-14 0)
(0.928001 1.7528e-14 0)
(0.928214 2.08797e-14 0)
(0.928424 8.1288e-15 0)
(0.928417 1.29485e-14 0)
(0.928204 1.74554e-14 0)
(0.928122 1.73967e-14 0)
(0.928141 3.44627e-14 0)
(0.928171 1.52461e-14 0)
(0.928129 1.10926e-14 0)
(0.928069 8.51115e-15 0)
(0.928012 1.33117e-14 0)
(0.927959 1.09618e-14 0)
(0.927923 4.75172e-15 0)
(0.9279 7.57513e-15 0)
(0.927885 8.35722e-16 0)
(0.928029 1.93528e-15 0)
(0.92841 8.00397e-15 0)
(0.928883 -1.8428e-15 0)
(0.928862 9.26546e-15 0)
(0.927257 -8.91677e-15 0)
(0.928297 3.57696e-15 0)
(0.929671 -4.21974e-16 0)
(0.927731 6.15534e-15 0)
(0.926555 1.0188e-14 0)
(0.926173 9.98109e-15 0)
(0.925904 9.51197e-15 0)
(0.925818 8.59321e-15 0)
(0.926058 9.04413e-15 0)
(0.926803 1.37194e-15 0)
(0.927914 -3.18154e-16 0)
(0.928497 -2.82622e-15 0)
(0.928333 -3.83015e-16 0)
(0.928003 -2.78653e-15 0)
(0.927435 -4.15643e-15 0)
(0.926119 -3.34039e-15 0)
(0.920845 -2.83188e-15 0)
(0.892238 -2.9145e-15 0)
(0.748421 7.9144e-16 0)
(0.335445 1.14185e-14 0)
(0.0264171 1.38964e-15 0)
(0.000179906 1.6217e-15 0)
(7.81891e-08 -6.98224e-16 0)
(2.41107e-12 8.34833e-17 0)
(-1.21213e-15 -1.5504e-16 0)
(2.38524e-17 0 0)
(3.26498e-16 -4.77047e-17 0)
(3.97407e-16 -3.16586e-16 0)
(-8.91517e-17 -5.63783e-16 0)
(-7.2506e-16 -6.44014e-16 0)
(-3.75711e-16 -2.92734e-16 0)
(-1.29175e-17 -2.1684e-17 0)
(9.59394e-17 0 0)
(-1.71807e-17 0 0)
(2.4063e-16 1.25767e-16 0)
(4.9105e-16 4.31511e-16 0)
(2.61855e-16 6.13656e-16 0)
(5.36803e-17 3.75133e-16 0)
(3.31565e-15 -2.60208e-17 0)
(4.95545e-11 2.27248e-15 0)
(7.31067e-08 -2.08817e-15 0)
(1.35464e-05 1.44851e-14 0)
(0.000453039 1.96315e-15 0)
(0.00414149 2.94849e-15 0)
(0.0157986 3.47268e-14 0)
(0.0358107 -1.93579e-14 0)
(0.0609367 8.01364e-15 0)
(0.0885644 4.18459e-15 0)
(0.117448 1.34857e-14 0)
(0.14706 1.35821e-14 0)
(0.177158 6.86817e-15 0)
(0.207606 -1.1046e-14 0)
(0.238322 1.91483e-14 0)
(0.269248 2.24212e-14 0)
(0.300345 -1.8617e-14 0)
(0.331586 1.1716e-14 0)
(0.362951 1.15298e-14 0)
(0.394427 5.43507e-16 0)
(0.426006 2.47393e-14 0)
(0.457683 -3.43661e-15 0)
(0.489456 2.40709e-14 0)
(0.521325 6.98054e-15 0)
(0.553292 -3.1305e-15 0)
(0.585358 2.02695e-14 0)
(0.617525 2.29246e-14 0)
(0.649791 1.54351e-14 0)
(0.682151 7.08377e-15 0)
(0.714592 7.70479e-15 0)
(0.74709 3.92926e-14 0)
(0.779606 2.23444e-14 0)
(0.812054 3.61385e-14 0)
(0.84423 -1.07807e-14 0)
(0.875522 4.4035e-14 0)
(0.904066 3.8953e-14 0)
(0.925267 1.3727e-14 0)
(0.933645 2.77361e-14 0)
(0.931068 2.87469e-14 0)
(0.925846 2.8424e-14 0)
(0.927101 3.01845e-14 0)
(0.927641 2.18464e-14 0)
(0.92782 1.89176e-14 0)
(0.928001 1.2874e-14 0)
(0.928214 1.60021e-14 0)
(0.928424 3.5815e-15 0)
(0.928417 1.10767e-14 0)
(0.928204 1.50069e-14 0)
(0.928122 1.61842e-14 0)
(0.928141 2.76381e-14 0)
(0.928171 8.44651e-15 0)
(0.928129 9.81609e-15 0)
(0.928069 6.01181e-15 0)
(0.928012 1.12862e-14 0)
(0.927959 8.03237e-15 0)
(0.927923 2.24261e-15 0)
(0.9279 4.51153e-15 0)
(0.927885 2.59443e-15 0)
(0.928029 1.53556e-15 0)
(0.92841 4.61908e-15 0)
(0.928883 -1.80735e-15 0)
(0.928862 7.51225e-15 0)
(0.927257 -4.56214e-15 0)
(0.928297 4.83936e-15 0)
(0.929671 2.13548e-16 0)
(0.927731 3.74631e-15 0)
(0.926555 7.9565e-15 0)
(0.926173 7.96853e-15 0)
(0.925904 6.03795e-15 0)
(0.925818 6.83188e-15 0)
(0.926058 8.58609e-15 0)
(0.926803 3.72911e-16 0)
(0.927914 2.74695e-15 0)
(0.928497 -7.17269e-16 0)
(0.928333 3.35431e-15 0)
(0.928003 -1.25455e-16 0)
(0.927435 -3.95187e-15 0)
(0.926119 -1.60484e-15 0)
(0.920845 -1.04856e-15 0)
(0.892238 -4.65376e-16 0)
(0.748421 2.47996e-15 0)
(0.335445 9.87739e-15 0)
(0.0264171 -1.03242e-15 0)
(0.000179906 -9.21418e-16 0)
(7.81891e-08 -8.3158e-16 0)
(2.41137e-12 -3.43691e-16 0)
(-9.32411e-16 -3.40438e-16 0)
(1.01915e-16 0 0)
(3.81013e-16 -2.7105e-16 0)
(5.9593e-17 -6.52687e-16 0)
(-1.93749e-16 -1.03216e-15 0)
(-4.01086e-16 -8.19654e-16 0)
(-6.65967e-17 -4.18501e-16 0)
(3.04012e-16 -4.98731e-17 0)
(2.20307e-16 4.11995e-17 0)
(1.92407e-17 0 0)
(2.52322e-16 0 0)
(4.32836e-16 1.51788e-16 0)
(5.84602e-17 3.25259e-16 0)
(-2.20183e-16 1.01915e-16 0)
(3.07771e-15 -5.20415e-17 0)
(4.95557e-11 4.64037e-16 0)
(7.31067e-08 -1.5916e-15 0)
(1.35464e-05 3.94219e-15 0)
(0.000453039 -5.29942e-15 0)
(0.00414149 7.33751e-15 0)
(0.0157986 2.09763e-14 0)
(0.0358107 -1.06055e-14 0)
(0.0609367 6.09301e-15 0)
(0.0885644 3.07735e-15 0)
(0.117448 8.36161e-15 0)
(0.14706 4.75037e-15 0)
(0.177158 7.83257e-15 0)
(0.207606 -1.19327e-14 0)
(0.238322 1.69455e-14 0)
(0.269248 1.7928e-14 0)
(0.300345 -1.52853e-14 0)
(0.331586 1.3659e-14 0)
(0.362951 1.2698e-14 0)
(0.394427 -1.27073e-16 0)
(0.426006 2.5097e-14 0)
(0.457683 2.20566e-15 0)
(0.489456 1.93803e-14 0)
(0.521325 7.0029e-15 0)
(0.553292 -2.88601e-15 0)
(0.585358 1.97821e-14 0)
(0.617525 2.00541e-14 0)
(0.649791 1.48094e-14 0)
(0.682151 6.94671e-15 0)
(0.714592 1.11599e-14 0)
(0.74709 2.92128e-14 0)
(0.779606 2.38379e-14 0)
(0.812054 3.09374e-14 0)
(0.84423 -8.25532e-15 0)
(0.875522 4.3756e-14 0)
(0.904066 2.91259e-14 0)
(0.925267 1.14303e-14 0)
(0.933645 2.83628e-14 0)
(0.931068 3.04572e-14 0)
(0.925846 2.36231e-14 0)
(0.927101 2.47189e-14 0)
(0.927641 1.8261e-14 0)
(0.92782 1.32403e-14 0)
(0.928001 1.16887e-14 0)
(0.928214 1.11283e-14 0)
(0.928424 5.45835e-15 0)
(0.928417 1.18258e-14 0)
(0.928204 1.22165e-14 0)
(0.928122 1.37384e-14 0)
(0.928141 1.80844e-14 0)
(0.928171 8.68269e-15 0)
(0.928129 7.85147e-15 0)
(0.928069 5.84206e-15 0)
(0.928012 7.09975e-15 0)
(0.927959 5.36246e-15 0)
(0.927923 3.40281e-15 0)
(0.9279 3.8047e-15 0)
(0.927885 3.90675e-15 0)
(0.928029 1.9673e-15 0)
(0.92841 5.70084e-15 0)
(0.928883 1.1009e-15 0)
(0.928862 5.37577e-15 0)
(0.927257 1.02241e-15 0)
(0.928297 4.69144e-15 0)
(0.929671 1.18655e-15 0)
(0.927731 2.53383e-15 0)
(0.926555 6.25448e-15 0)
(0.926173 5.27398e-15 0)
(0.925904 3.97942e-15 0)
(0.925818 3.98031e-15 0)
(0.926058 6.05197e-15 0)
(0.926803 -6.29703e-16 0)
(0.927914 3.33525e-15 0)
(0.928497 1.81613e-15 0)
(0.928333 3.12124e-15 0)
(0.928003 1.38562e-15 0)
(0.927435 -6.04998e-16 0)
(0.926119 9.57898e-16 0)
(0.920845 1.74025e-15 0)
(0.892238 1.50736e-15 0)
(0.748421 2.38731e-15 0)
(0.335445 3.94435e-15 0)
(0.0264171 -1.10556e-15 0)
(0.000179906 -4.7697e-16 0)
(7.81891e-08 -2.00577e-16 0)
(2.41147e-12 2.05998e-17 0)
(-7.16655e-16 -1.22514e-16 0)
(5.18247e-16 1.99492e-16 0)
(4.93582e-16 0 0)
(4.26169e-17 -2.8406e-16 0)
(-1.50997e-16 -6.63529e-16 0)
(-1.34317e-16 -4.48858e-16 0)
(1.08896e-16 -7.15571e-17 0)
(4.56315e-16 2.7105e-16 0)
(2.50494e-16 4.68374e-16 0)
(4.67306e-17 3.10081e-16 0)
(2.85726e-16 1.25767e-16 0)
(4.09833e-16 2.1684e-18 0)
(3.26547e-17 0 0)
(-3.63083e-16 0 0)
(3.05999e-15 -8.02307e-17 0)
(4.95562e-11 1.99492e-16 0)
(7.31067e-08 3.46943e-16 0)
(1.35464e-05 -9.12905e-16 0)
(0.000453039 -1.11976e-14 0)
(0.00414149 1.13892e-14 0)
(0.0157986 8.62127e-15 0)
(0.0358107 -1.82067e-15 0)
(0.0609367 6.16609e-15 0)
(0.0885644 3.34276e-15 0)
(0.117448 6.5361e-15 0)
(0.14706 -4.58682e-15 0)
(0.177158 9.66038e-15 0)
(0.207606 -1.26094e-14 0)
(0.238322 1.50304e-14 0)
(0.269248 1.2337e-14 0)
(0.300345 -1.4406e-14 0)
(0.331586 1.52533e-14 0)
(0.362951 1.10328e-14 0)
(0.394427 -6.43022e-17 0)
(0.426006 2.28534e-14 0)
(0.457683 5.51415e-15 0)
(0.489456 1.64614e-14 0)
(0.521325 6.50933e-15 0)
(0.553292 -3.5433e-17 0)
(0.585358 1.91048e-14 0)
(0.617525 1.43102e-14 0)
(0.649791 1.37569e-14 0)
(0.682151 6.33147e-15 0)
(0.714592 1.40484e-14 0)
(0.74709 1.83291e-14 0)
(0.779606 2.45105e-14 0)
(0.812054 2.16856e-14 0)
(0.84423 -7.0974e-15 0)
(0.875522 4.11524e-14 0)
(0.904066 2.19165e-14 0)
(0.925267 1.00649e-14 0)
(0.933645 2.76548e-14 0)
(0.931068 2.93803e-14 0)
(0.925846 2.21566e-14 0)
(0.927101 2.25804e-14 0)
(0.927641 1.23364e-14 0)
(0.92782 9.98783e-15 0)
(0.928001 1.12345e-14 0)
(0.928214 1.01574e-14 0)
(0.928424 7.70224e-15 0)
(0.928417 1.01946e-14 0)
(0.928204 9.1416e-15 0)
(0.928122 1.21566e-14 0)
(0.928141 1.07402e-14 0)
(0.928171 8.75007e-15 0)
(0.928129 4.40473e-15 0)
(0.928069 5.6901e-15 0)
(0.928012 5.27445e-15 0)
(0.927959 6.32478e-15 0)
(0.927923 5.34002e-15 0)
(0.9279 4.62412e-15 0)
(0.927885 1.61573e-15 0)
(0.928029 1.95921e-15 0)
(0.92841 4.71869e-15 0)
(0.928883 3.41604e-15 0)
(0.928862 2.44879e-15 0)
(0.927257 4.7638e-15 0)
(0.928297 3.7877e-15 0)
(0.929671 3.65028e-15 0)
(0.927731 3.0484e-15 0)
(0.926555 4.10008e-15 0)
(0.926173 3.07897e-15 0)
(0.925904 2.72879e-15 0)
(0.925818 2.75923e-15 0)
(0.926058 3.58292e-15 0)
(0.926803 1.87325e-15 0)
(0.927914 4.00577e-15 0)
(0.928497 2.46657e-15 0)
(0.928333 1.98852e-15 0)
(0.928003 3.19503e-15 0)
(0.927435 2.98163e-15 0)
(0.926119 2.25484e-15 0)
(0.920845 1.41363e-15 0)
(0.892238 1.97903e-15 0)
(0.748421 1.65134e-15 0)
(0.335445 -1.78966e-15 0)
(0.0264171 -4.84412e-16 0)
(0.000179906 3.37131e-16 0)
(7.81891e-08 3.72964e-16 0)
(2.41125e-12 3.62122e-16 0)
(-8.55432e-16 2.40692e-16 0)
(9.34579e-16 4.92226e-16 0)
(6.48405e-16 1.84314e-16 0)
(2.24761e-17 1.0842e-16 0)
(-3.10765e-16 -2.55871e-16 0)
(-1.80937e-16 -2.4074e-34 0)
(2.65504e-16 1.69135e-16 0)
(5.06719e-16 6.04983e-16 0)
(2.54409e-16 8.5218e-16 0)
(5.68457e-17 6.57024e-16 0)
(2.96567e-16 3.90311e-16 0)
(2.5878e-16 1.84314e-16 0)
(-1.14939e-16 -1.86482e-16 0)
(-4.53973e-16 -8.89043e-17 0)
(3.05018e-15 -3.10081e-16 0)
(4.95566e-11 3.9248e-16 0)
(7.31067e-08 -2.34621e-15 0)
(1.35464e-05 -1.38562e-15 0)
(0.000453039 -1.4139e-14 0)
(0.00414149 6.88925e-15 0)
(0.0157986 -4.83477e-16 0)
(0.0358107 2.07661e-15 0)
(0.0609367 3.95658e-15 0)
(0.0885644 2.60382e-15 0)
(0.117448 7.16418e-15 0)
(0.14706 -1.12051e-14 0)
(0.177158 1.08886e-14 0)
(0.207606 -1.09397e-14 0)
(0.238322 1.30474e-14 0)
(0.269248 7.86701e-15 0)
(0.300345 -1.03525e-14 0)
(0.331586 1.70473e-14 0)
(0.362951 1.01206e-14 0)
(0.394427 2.8936e-16 0)
(0.426006 2.19096e-14 0)
(0.457683 9.28972e-15 0)
(0.489456 1.46663e-14 0)
(0.521325 4.97185e-15 0)
(0.553292 3.09507e-15 0)
(0.585358 1.70154e-14 0)
(0.617525 8.04892e-15 0)
(0.649791 1.09652e-14 0)
(0.682151 6.17141e-15 0)
(0.714592 1.64147e-14 0)
(0.74709 8.68378e-15 0)
(0.779606 2.56941e-14 0)
(0.812054 1.06414e-14 0)
(0.84423 -4.20552e-15 0)
(0.875522 4.19072e-14 0)
(0.904066 1.34436e-14 0)
(0.925267 1.53918e-14 0)
(0.933645 2.52575e-14 0)
(0.931068 2.63815e-14 0)
(0.925846 1.72738e-14 0)
(0.927101 1.8372e-14 0)
(0.927641 8.12559e-15 0)
(0.92782 6.60077e-15 0)
(0.928001 1.1795e-14 0)
(0.928214 7.63843e-15 0)
(0.928424 9.35754e-15 0)
(0.928417 1.15857e-14 0)
(0.928204 8.19832e-15 0)
(0.928122 1.18403e-14 0)
(0.928141 4.96114e-15 0)
(0.928171 9.4548e-15 0)
(0.928129 4.48642e-15 0)
(0.928069 6.04297e-15 0)
(0.928012 3.43579e-15 0)
(0.927959 5.65738e-15 0)
(0.927923 7.45565e-15 0)
(0.9279 3.54722e-15 0)
(0.927885 8.16591e-16 0)
(0.928029 2.39482e-15 0)
(0.92841 3.7256e-15 0)
(0.928883 6.1726e-15 0)
(0.928862 1.23389e-15 0)
(0.927257 7.40483e-15 0)
(0.928297 3.75325e-15 0)
(0.929671 4.24996e-15 0)
(0.927731 4.25009e-15 0)
(0.926555 9.51511e-16 0)
(0.926173 1.00577e-15 0)
(0.925904 1.85925e-15 0)
(0.925818 -3.94542e-16 0)
(0.926058 1.61854e-15 0)
(0.926803 1.51313e-15 0)
(0.927914 2.74695e-15 0)
(0.928497 2.64104e-15 0)
(0.928333 3.49865e-16 0)
(0.928003 2.989e-15 0)
(0.927435 5.67454e-15 0)
(0.926119 4.00571e-15 0)
(0.920845 2.17044e-15 0)
(0.892238 3.34368e-15 0)
(0.748421 2.85119e-15 0)
(0.335445 -6.90922e-15 0)
(0.0264171 1.60269e-15 0)
(0.000179906 -4.11928e-17 0)
(7.81891e-08 1.43114e-15 0)
(2.41107e-12 6.81961e-16 0)
(-1.12648e-15 5.12826e-16 0)
(1.16877e-15 2.49366e-16 0)
(7.30089e-16 1.04083e-16 0)
(4.48482e-17 1.34441e-16 0)
(-3.23713e-16 2.81892e-16 0)
(6.22383e-18 1.0842e-16 0)
(4.36372e-16 2.81892e-16 0)
(6.91241e-16 4.22837e-16 0)
(3.08657e-16 5.009e-16 0)
(-1.26313e-16 4.7271e-16 0)
(3.29982e-16 2.94902e-16 0)
(-2.75739e-17 -6.50519e-17 0)
(-4.03989e-16 -3.5128e-16 0)
(-2.48058e-16 -2.38524e-17 0)
(2.62518e-15 8.89043e-17 0)
(4.9557e-11 1.12757e-16 0)
(7.31067e-08 -3.22441e-15 0)
(1.35464e-05 -2.54139e-15 0)
(0.000453039 -7.39923e-15 0)
(0.00414149 -3.82107e-15 0)
(0.0157986 -1.40648e-15 0)
(0.0358107 3.96658e-15 0)
(0.0609367 1.87038e-15 0)
(0.0885644 3.59765e-15 0)
(0.117448 7.72394e-15 0)
(0.14706 -1.55226e-14 0)
(0.177158 9.86739e-15 0)
(0.207606 -6.49849e-15 0)
(0.238322 8.89361e-15 0)
(0.269248 3.72821e-15 0)
(0.300345 -6.52413e-15 0)
(0.331586 1.51983e-14 0)
(0.362951 6.75597e-15 0)
(0.394427 -9.40037e-16 0)
(0.426006 1.78668e-14 0)
(0.457683 1.03796e-14 0)
(0.489456 1.31451e-14 0)
(0.521325 1.85219e-15 0)
(0.553292 7.28324e-15 0)
(0.585358 1.28558e-14 0)
(0.617525 5.43996e-15 0)
(0.649791 8.51683e-15 0)
(0.682151 6.34848e-15 0)
(0.714592 1.61856e-14 0)
(0.74709 3.11998e-16 0)
(0.779606 2.64612e-14 0)
(0.812054 3.92149e-15 0)
(0.84423 -2.03251e-15 0)
(0.875522 4.33828e-14 0)
(0.904066 6.15092e-15 0)
(0.925267 1.14278e-14 0)
(0.933645 2.59402e-14 0)
(0.931068 2.59524e-14 0)
(0.925846 1.66707e-14 0)
(0.927101 1.50014e-14 0)
(0.927641 7.98219e-15 0)
(0.92782 6.18956e-15 0)
(0.928001 1.23978e-14 0)
(0.928214 5.93089e-15 0)
(0.928424 8.57955e-15 0)
(0.928417 1.18025e-14 0)
(0.928204 8.33485e-15 0)
(0.928122 8.79761e-15 0)
(0.928141 4.37188e-15 0)
(0.928171 8.46653e-15 0)
(0.928129 5.32109e-15 0)
(0.928069 7.14163e-15 0)
(0.928012 4.35512e-15 0)
(0.927959 2.92013e-15 0)
(0.927923 6.9519e-15 0)
(0.9279 3.42256e-15 0)
(0.927885 1.21968e-15 0)
(0.928029 2.95992e-15 0)
(0.92841 2.16578e-15 0)
(0.928883 6.93635e-15 0)
(0.928862 1.08835e-15 0)
(0.927257 8.52028e-15 0)
(0.928297 1.75631e-15 0)
(0.929671 6.29223e-15 0)
(0.927731 3.65695e-15 0)
(0.926555 1.66142e-15 0)
(0.926173 1.00988e-15 0)
(0.925904 1.91523e-15 0)
(0.925818 9.49158e-16 0)
(0.926058 2.37734e-16 0)
(0.926803 2.76742e-16 0)
(0.927914 3.28214e-15 0)
(0.928497 3.64552e-15 0)
(0.928333 9.97573e-16 0)
(0.928003 2.51828e-15 0)
(0.927435 3.99115e-15 0)
(0.926119 4.73485e-15 0)
(0.920845 2.69908e-15 0)
(0.892238 2.9953e-15 0)
(0.748421 1.95116e-15 0)
(0.335445 -3.60905e-15 0)
(0.0264171 2.16766e-15 0)
(0.000179906 -2.08132e-16 0)
(7.81891e-08 7.65444e-16 0)
(2.41064e-12 3.48028e-16 0)
(-1.35525e-15 3.75133e-16 0)
(9.49758e-16 1.95156e-17 0)
(6.15461e-16 2.55871e-16 0)
(1.20962e-16 3.03576e-16 0)
(8.38415e-18 6.04983e-16 0)
(2.28833e-16 3.94648e-16 0)
(4.59531e-16 5.46436e-16 0)
(4.24753e-16 3.88143e-16 0)
(1.77028e-16 1.40946e-16 0)
(1.31304e-16 2.1684e-16 0)
(-7.38245e-17 -1.14925e-16 0)
(-3.24407e-16 -3.88143e-16 0)
(-8.60437e-17 -1.49619e-16 0)
(-2.72371e-16 1.7564e-16 0)
(2.95945e-15 4.87889e-16 0)
(4.95566e-11 -1.10588e-16 0)
(7.31067e-08 -1.7499e-15 0)
(1.35464e-05 2.23347e-16 0)
(0.000453039 1.49026e-15 0)
(0.00414149 -1.13196e-14 0)
(0.0157986 4.82818e-15 0)
(0.0358107 5.25748e-15 0)
(0.0609367 2.27232e-15 0)
(0.0885644 2.27411e-15 0)
(0.117448 9.6741e-15 0)
(0.14706 -1.35403e-14 0)
(0.177158 1.23516e-14 0)
(0.207606 -2.29969e-15 0)
(0.238322 4.83702e-15 0)
(0.269248 3.91161e-15 0)
(0.300345 -1.9979e-16 0)
(0.331586 1.3319e-14 0)
(0.362951 3.8259e-15 0)
(0.394427 -2.90432e-15 0)
(0.426006 1.26659e-14 0)
(0.457683 1.10899e-14 0)
(0.489456 9.75695e-15 0)
(0.521325 -1.79028e-15 0)
(0.553292 1.25273e-14 0)
(0.585358 1.09526e-14 0)
(0.617525 4.56403e-15 0)
(0.649791 4.8899e-15 0)
(0.682151 7.4109e-15 0)
(0.714592 1.5424e-14 0)
(0.74709 -6.77026e-15 0)
(0.779606 2.69052e-14 0)
(0.812054 -1.28523e-15 0)
(0.84423 2.36736e-15 0)
(0.875522 3.87867e-14 0)
(0.904066 2.85246e-15 0)
(0.925267 1.4364e-14 0)
(0.933645 2.31375e-14 0)
(0.931068 2.10054e-14 0)
(0.925846 1.33277e-14 0)
(0.927101 1.13781e-14 0)
(0.927641 7.66804e-15 0)
(0.92782 6.89209e-15 0)
(0.928001 9.76478e-15 0)
(0.928214 5.69955e-15 0)
(0.928424 1.05895e-14 0)
(0.928417 9.15749e-15 0)
(0.928204 8.8154e-15 0)
(0.928122 4.81987e-15 0)
(0.928141 8.42799e-15 0)
(0.928171 8.97258e-15 0)
(0.928129 4.47752e-15 0)
(0.928069 7.37052e-15 0)
(0.928012 8.23674e-15 0)
(0.927959 2.95556e-15 0)
(0.927923 4.4251e-15 0)
(0.9279 5.84133e-15 0)
(0.927885 3.69195e-15 0)
(0.928029 5.77839e-15 0)
(0.92841 2.98003e-15 0)
(0.928883 5.15497e-15 0)
(0.928862 2.96675e-15 0)
(0.927257 7.70634e-15 0)
(0.928297 4.7578e-15 0)
(0.929671 8.15373e-15 0)
(0.927731 1.50109e-15 0)
(0.926555 4.81564e-15 0)
(0.926173 4.45168e-15 0)
(0.925904 3.83458e-15 0)
(0.925818 4.63291e-15 0)
(0.926058 2.67451e-15 0)
(0.926803 2.40985e-15 0)
(0.927914 2.75001e-15 0)
(0.928497 3.12823e-15 0)
(0.928333 3.35482e-15 0)
(0.928003 2.4474e-15 0)
(0.927435 1.51709e-15 0)
(0.926119 2.80885e-15 0)
(0.920845 2.33401e-15 0)
(0.892238 1.80904e-15 0)
(0.748421 2.2014e-16 0)
(0.335445 2.64195e-15 0)
(0.0264171 -5.29991e-16 0)
(0.000179906 -1.01464e-15 0)
(7.81891e-08 1.74556e-16 0)
(2.41091e-12 2.60208e-16 0)
(-1.25442e-15 2.74302e-16 0)
(1.12757e-15 -2.27682e-16 0)
(7.13469e-16 -9.97462e-17 0)
(1.67842e-16 -5.63783e-17 0)
(3.0818e-17 2.66713e-16 0)
(3.74483e-16 2.14671e-16 0)
(6.83781e-16 2.51534e-16 0)
(3.61971e-16 -7.15571e-17 0)
(1.82087e-16 -3.96817e-16 0)
(-1.36785e-16 -2.68881e-16 0)
(-4.00024e-16 -5.009e-16 0)
(-7.12105e-17 -1.69135e-16 0)
(1.07019e-16 1.77809e-16 0)
(-5.2528e-17 -8.67359e-18 0)
(2.72114e-15 2.55871e-16 0)
(4.95554e-11 -6.37509e-16 0)
(7.31067e-08 -2.42644e-15 0)
(1.35464e-05 4.01808e-15 0)
(0.000453039 -9.32768e-17 0)
(0.00414149 -1.08126e-14 0)
(0.0157986 3.40851e-15 0)
(0.0358107 6.38967e-15 0)
(0.0609367 1.76875e-15 0)
(0.0885644 -1.17505e-15 0)
(0.117448 9.66331e-15 0)
(0.14706 -1.1831e-14 0)
(0.177158 1.1651e-14 0)
(0.207606 1.97172e-15 0)
(0.238322 1.7979e-15 0)
(0.269248 2.03655e-15 0)
(0.300345 5.55191e-15 0)
(0.331586 1.15308e-14 0)
(0.362951 2.27977e-15 0)
(0.394427 -1.10998e-15 0)
(0.426006 6.97024e-15 0)
(0.457683 1.08434e-14 0)
(0.489456 8.9621e-15 0)
(0.521325 -1.77996e-15 0)
(0.553292 1.40368e-14 0)
(0.585358 1.19266e-14 0)
(0.617525 2.92132e-15 0)
(0.649791 2.72771e-15 0)
(0.682151 9.24361e-15 0)
(0.714592 1.39885e-14 0)