/*--------------------------------*- C++ -*----------------------------------*\
| =========                 |                                                 |
| \\      /  F ield         | OpenFOAM: The Open Source CFD Toolbox           |
|  \\    /   O peration     | Version:  4.1                                   |
|   \\  /    A nd           | Web:      www.OpenFOAM.org                      |
|    \\/     M anipulation  |                                                 |
\*---------------------------------------------------------------------------*/
FoamFile
{
    version     2.0;
    format      ascii;
    class       volVectorField;
    location    "0.43";
    object      U;
}
// * * * * * * * * * * * * * * * * * * * * * * * * * * * * * * * * * * * * * //

dimensions      [0 1 -1 0 0 0 0];

internalField   nonuniform List<vector> 
10000
(
(0 0 0)
(2.10113e-16 0 0)
(3.1572e-16 0 0)
(1.03171e-16 1.58293e-16 0)
(-1.20924e-16 0 0)
(-3.1284e-16 0 0)
(-2.92208e-16 0 0)
(-6.20627e-17 0 0)
(-1.29769e-19 0 0)
(2.59955e-16 1.56125e-16 0)
(5.26873e-16 0 0)
(1.90419e-16 -1.56125e-16 0)
(-1.82702e-16 0 0)
(6.72939e-17 0 0)
(1.61339e-16 0 0)
(-5.93476e-17 1.34441e-16 0)
(-2.68785e-16 0 0)
(4.03541e-16 0 0)
(9.73447e-12 6.50519e-18 0)
(2.30242e-08 2.75386e-16 0)
(6.36768e-06 2.74737e-15 0)
(0.000292547 8.67139e-15 0)
(0.00335602 -3.90552e-15 0)
(0.0147666 1.83275e-14 0)
(0.0362689 -3.12399e-15 0)
(0.0644556 8.75028e-16 0)
(0.0959919 -1.62433e-14 0)
(0.129191 -5.35203e-16 0)
(0.163333 -3.04076e-15 0)
(0.19809 8.18293e-15 0)
(0.233285 1.82142e-14 0)
(0.268811 2.85646e-14 0)
(0.304597 2.05752e-14 0)
(0.340598 2.4266e-14 0)
(0.376781 -1.45545e-14 0)
(0.413128 4.79745e-14 0)
(0.449627 -4.72522e-15 0)
(0.486273 -2.80891e-15 0)
(0.523067 -1.09955e-14 0)
(0.560011 7.58256e-15 0)
(0.597108 -5.08555e-15 0)
(0.634361 2.36329e-14 0)
(0.671762 1.18997e-14 0)
(0.709295 1.13057e-13 0)
(0.74692 6.96245e-14 0)
(0.784553 5.92351e-14 0)
(0.821998 1.07765e-13 0)
(0.858714 4.78481e-14 0)
(0.893112 -1.61037e-13 0)
(0.920642 1.23704e-13 0)
(0.933745 1.03758e-13 0)
(0.93292 3.96081e-14 0)
(0.925602 4.63101e-14 0)
(0.926813 8.07469e-15 0)
(0.927534 1.57844e-15 0)
(0.927753 1.63652e-15 0)
(0.927956 2.13033e-15 0)
(0.928159 8.80913e-15 0)
(0.928434 1.75604e-14 0)
(0.928503 1.7992e-14 0)
(0.928312 1.31334e-14 0)
(0.928162 1.33987e-14 0)
(0.928176 1.22507e-14 0)
(0.928177 1.23578e-14 0)
(0.928125 5.89017e-15 0)
(0.92805 2.72453e-15 0)
(0.928002 7.04793e-15 0)
(0.928046 -2.47974e-15 0)
(0.9283 6.66936e-15 0)
(0.928728 4.0036e-15 0)
(0.928807 -9.31286e-15 0)
(0.92954 -1.69594e-14 0)
(0.929497 -2.38083e-14 0)
(0.925507 -1.62169e-14 0)
(0.925542 -1.01689e-14 0)
(0.92608 -7.85078e-15 0)
(0.926581 -4.54082e-15 0)
(0.927567 -4.79435e-15 0)
(0.928756 -4.79098e-15 0)
(0.929135 -5.13757e-15 0)
(0.928544 -7.72691e-15 0)
(0.927676 -7.83712e-15 0)
(0.926654 -7.03949e-15 0)
(0.92576 -7.26074e-15 0)
(0.924357 -7.24355e-15 0)
(0.918393 -6.74366e-15 0)
(0.883839 -5.50729e-15 0)
(0.713537 -4.37684e-15 0)
(0.276636 -1.45289e-15 0)
(0.0163855 6.01856e-16 0)
(8.05302e-05 7.58883e-18 0)
(2.41486e-08 3.66459e-16 0)
(7.10531e-13 1.46367e-16 0)
(6.36859e-17 2.1684e-18 0)
(1.68257e-16 0 0)
(-4.89827e-17 3.25259e-18 0)
(-2.88672e-16 2.13587e-16 0)
(-3.76769e-16 2.12503e-16 0)
(-3.54505e-16 1.45283e-16 0)
(-2.20092e-16 2.17924e-16 0)
(0 0 0)
(2.3688e-16 0 0)
(3.19942e-16 1.38777e-16 0)
(1.06091e-16 3.42607e-16 0)
(-1.21793e-16 1.27935e-16 0)
(-3.24121e-16 2.68881e-16 0)
(-3.31784e-16 5.20415e-17 0)
(-7.0329e-17 0 0)
(-1.28001e-18 0 0)
(2.51954e-16 0 0)
(5.5822e-16 0 0)
(1.96801e-16 0 0)
(-1.60156e-16 0 0)
(7.67269e-17 0 0)
(1.52731e-16 1.30104e-16 0)
(-6.65465e-17 3.18754e-16 0)
(-2.73734e-16 1.27935e-16 0)
(3.82374e-16 0 0)
(9.73448e-12 1.45283e-16 0)
(2.30242e-08 1.86265e-15 0)
(6.36768e-06 8.34187e-15 0)
(0.000292547 1.12025e-14 0)
(0.00335602 -5.63212e-15 0)
(0.0147666 2.97364e-14 0)
(0.0362689 -7.89047e-15 0)
(0.0644556 -1.12723e-14 0)
(0.0959919 -3.53367e-15 0)
(0.129191 2.28212e-14 0)
(0.163333 6.19876e-16 0)
(0.19809 -7.18915e-15 0)
(0.233285 3.00919e-14 0)
(0.268811 1.40579e-14 0)
(0.304597 1.17621e-14 0)
(0.340598 2.07057e-14 0)
(0.376781 -2.58873e-15 0)
(0.413128 3.43563e-14 0)
(0.449627 -1.03939e-14 0)
(0.486273 1.38831e-14 0)
(0.523067 1.31298e-14 0)
(0.560011 1.01677e-14 0)
(0.597108 2.46432e-16 0)
(0.634361 2.82876e-14 0)
(0.671762 2.56142e-14 0)
(0.709295 6.22642e-14 0)
(0.74692 1.83804e-14 0)
(0.784553 5.04433e-14 0)
(0.821998 5.84777e-14 0)
(0.858714 5.68916e-14 0)
(0.893112 -3.71619e-14 0)
(0.920642 6.33521e-14 0)
(0.933745 5.96358e-14 0)
(0.93292 3.91747e-14 0)
(0.925602 4.22877e-14 0)
(0.926813 1.37508e-14 0)
(0.927534 5.13063e-15 0)
(0.927753 7.33538e-15 0)
(0.927956 7.02484e-15 0)
(0.928159 9.20913e-15 0)
(0.928434 7.24188e-15 0)
(0.928503 8.1966e-15 0)
(0.928312 1.62543e-14 0)
(0.928162 1.51428e-14 0)
(0.928176 1.41943e-14 0)
(0.928177 1.43293e-14 0)
(0.928125 8.09331e-15 0)
(0.92805 7.88574e-15 0)
(0.928002 3.68688e-15 0)
(0.928046 -5.49362e-16 0)
(0.9283 3.8562e-15 0)
(0.928728 2.09061e-15 0)
(0.928807 -4.31049e-16 0)
(0.92954 -4.55562e-15 0)
(0.929497 -1.33872e-14 0)
(0.925507 -1.13848e-14 0)
(0.925542 -7.37051e-15 0)
(0.92608 -6.51719e-15 0)
(0.926581 -2.72439e-15 0)
(0.927567 -1.01134e-16 0)
(0.928756 1.90133e-15 0)
(0.929135 -4.90121e-16 0)
(0.928544 -1.23729e-16 0)
(0.927676 3.78234e-17 0)
(0.926654 2.064e-15 0)
(0.92576 -3.69095e-16 0)
(0.924357 5.80609e-16 0)
(0.918393 -3.96172e-16 0)
(0.883839 -4.11303e-15 0)
(0.713537 -1.53994e-15 0)
(0.276636 -6.15443e-15 0)
(0.0163855 1.5009e-15 0)
(8.05302e-05 -1.90154e-15 0)
(2.41486e-08 4.16332e-16 0)
(7.10517e-13 3.85975e-16 0)
(5.04109e-17 1.44198e-16 0)
(1.6782e-16 4.33679e-17 0)
(-6.58144e-17 9.32411e-17 0)
(-3.25056e-16 3.50196e-16 0)
(-4.31589e-16 4.16332e-16 0)
(-4.65102e-16 3.31765e-16 0)
(-4.27174e-16 4.22837e-16 0)
(0 0 0)
(2.60454e-16 0 0)
(5.24871e-16 0 0)
(1.1569e-16 1.06251e-16 0)
(-3.55253e-16 3.44775e-16 0)
(-3.25068e-16 5.96309e-16 0)
(-3.54924e-16 2.75386e-16 0)
(-5.58587e-17 0 0)
(-8.09911e-18 0 0)
(2.52746e-16 0 0)
(5.82259e-16 0 0)
(2.19344e-16 2.1684e-18 0)
(-1.3416e-16 1.0842e-16 0)
(8.93228e-17 3.31765e-16 0)
(3.19169e-16 2.03829e-16 0)
(-4.91964e-17 9.54094e-17 0)
(-4.18539e-16 0 0)
(2.82579e-16 0 0)
(9.73481e-12 2.47197e-16 0)
(2.30242e-08 5.78962e-15 0)
(6.36768e-06 1.41337e-14 0)
(0.000292547 4.60464e-15 0)
(0.00335602 3.50105e-15 0)
(0.0147666 2.77844e-14 0)
(0.0362689 2.18142e-15 0)
(0.0644556 -1.71283e-14 0)
(0.0959919 -1.03786e-15 0)
(0.129191 2.80461e-14 0)
(0.163333 3.02205e-15 0)
(0.19809 -1.30078e-14 0)
(0.233285 3.24388e-14 0)
(0.268811 1.01477e-14 0)
(0.304597 9.59839e-15 0)
(0.340598 1.80263e-14 0)
(0.376781 9.55329e-16 0)
(0.413128 3.12963e-14 0)
(0.449627 -9.98818e-15 0)
(0.486273 1.81739e-14 0)
(0.523067 2.09609e-14 0)
(0.560011 8.14773e-15 0)
(0.597108 2.39694e-15 0)
(0.634361 3.01174e-14 0)
(0.671762 3.20272e-14 0)
(0.709295 4.28607e-14 0)
(0.74692 5.72822e-15 0)
(0.784553 4.57664e-14 0)
(0.821998 3.13833e-14 0)
(0.858714 5.31894e-14 0)
(0.893112 -1.01565e-14 0)
(0.920642 4.23029e-14 0)
(0.933745 4.10369e-14 0)
(0.93292 2.69209e-14 0)
(0.925602 2.61093e-14 0)
(0.926813 1.88044e-14 0)
(0.927534 7.29331e-15 0)
(0.927753 7.09582e-15 0)
(0.927956 5.57895e-15 0)
(0.928159 8.9396e-15 0)
(0.928434 4.73416e-15 0)
(0.928503 5.04416e-16 0)
(0.928312 1.47748e-14 0)
(0.928162 1.33021e-14 0)
(0.928176 1.34025e-14 0)
(0.928177 1.37748e-14 0)
(0.928125 8.63819e-15 0)
(0.92805 1.01656e-14 0)
(0.928002 2.17205e-15 0)
(0.928046 1.25018e-15 0)
(0.9283 5.60564e-16 0)
(0.928728 3.47305e-15 0)
(0.928807 -1.39731e-15 0)
(0.92954 -2.55486e-15 0)
(0.929497 -5.31301e-15 0)
(0.925507 -6.17243e-15 0)
(0.925542 -2.20426e-15 0)
(0.92608 -1.38864e-15 0)
(0.926581 8.02047e-16 0)
(0.927567 1.55961e-15 0)
(0.928756 1.73072e-15 0)
(0.929135 4.96772e-15 0)
(0.928544 6.12099e-15 0)
(0.927676 4.22447e-15 0)
(0.926654 7.93246e-15 0)
(0.92576 6.41162e-15 0)
(0.924357 3.55885e-15 0)
(0.918393 8.94084e-16 0)
(0.883839 -2.04357e-15 0)
(0.713537 2.3576e-15 0)
(0.276636 -4.55781e-15 0)
(0.0163855 2.45553e-15 0)
(8.05302e-05 -1.16651e-15 0)
(2.41486e-08 8.81453e-16 0)
(7.10464e-13 7.15571e-16 0)
(-2.96398e-17 4.27174e-16 0)
(7.47492e-17 3.22007e-16 0)
(-3.47227e-17 2.04913e-16 0)
(-2.77684e-16 4.09827e-16 0)
(-4.882e-16 6.21246e-16 0)
(-5.77906e-16 5.30173e-16 0)
(-6.3534e-16 6.29919e-16 0)
(-2.1684e-18 -2.1684e-18 0)
(2.66979e-16 -2.1684e-18 0)
(5.70324e-16 -2.1684e-18 0)
(1.65712e-16 3.90311e-17 0)
(-3.10703e-16 2.86228e-16 0)
(-6.94651e-16 2.19008e-16 0)
(-3.75817e-16 -2.1684e-18 0)
(-2.67897e-17 -2.1684e-18 0)
(-2.38942e-17 0 0)
(1.87135e-16 0 0)
(4.22753e-16 -4.33679e-18 0)
(2.50394e-16 -4.33679e-17 0)
(1.39804e-16 3.20923e-16 0)
(1.72498e-16 6.78708e-16 0)
(2.75677e-16 4.20669e-16 0)
(-8.77738e-17 3.90311e-17 0)
(-4.39656e-16 -2.1684e-18 0)
(2.1995e-16 1.17093e-16 0)
(9.73506e-12 5.98477e-16 0)
(2.30242e-08 6.29919e-15 0)
(6.36768e-06 1.43635e-14 0)
(0.000292547 -1.37077e-15 0)
(0.00335602 7.4979e-15 0)
(0.0147666 2.38234e-14 0)
(0.0362689 1.10558e-14 0)
(0.0644556 -2.06674e-14 0)
(0.0959919 -2.28047e-15 0)
(0.129191 3.0216e-14 0)
(0.163333 5.30699e-15 0)
(0.19809 -1.59982e-14 0)
(0.233285 3.01714e-14 0)
(0.268811 9.04905e-15 0)
(0.304597 7.60414e-15 0)
(0.340598 1.75683e-14 0)
(0.376781 1.39532e-15 0)
(0.413128 2.79279e-14 0)
(0.449627 -9.5229e-15 0)
(0.486273 2.04316e-14 0)
(0.523067 2.61753e-14 0)
(0.560011 3.34467e-15 0)
(0.597108 5.6541e-15 0)
(0.634361 2.86069e-14 0)
(0.671762 3.05017e-14 0)
(0.709295 2.90369e-14 0)
(0.74692 1.23189e-15 0)
(0.784553 3.95445e-14 0)
(0.821998 1.77662e-14 0)
(0.858714 5.08377e-14 0)
(0.893112 -2.81654e-15 0)
(0.920642 2.95878e-14 0)
(0.933745 3.07113e-14 0)
(0.93292 2.34347e-14 0)
(0.925602 2.80074e-14 0)
(0.926813 1.35995e-14 0)
(0.927534 9.6061e-15 0)
(0.927753 6.24639e-15 0)
(0.927956 4.52158e-15 0)
(0.928159 1.06182e-14 0)
(0.928434 2.92806e-15 0)
(0.928503 9.66214e-16 0)
(0.928312 1.09594e-14 0)
(0.928162 1.11764e-14 0)
(0.928176 1.47313e-14 0)
(0.928177 1.18558e-14 0)
(0.928125 5.46091e-15 0)
(0.92805 8.09148e-15 0)
(0.928002 4.24716e-15 0)
(0.928046 4.32999e-15 0)
(0.9283 2.58886e-16 0)
(0.928728 2.02781e-15 0)
(0.928807 -8.05359e-16 0)
(0.92954 2.63322e-15 0)
(0.929497 -1.12405e-15 0)
(0.925507 -2.13685e-15 0)
(0.925542 1.61371e-15 0)
(0.92608 3.76101e-16 0)
(0.926581 3.64726e-15 0)
(0.927567 3.52119e-15 0)
(0.928756 3.62539e-15 0)
(0.929135 9.41359e-15 0)
(0.928544 9.40748e-15 0)
(0.927676 7.31219e-15 0)
(0.926654 8.65726e-15 0)
(0.92576 8.59909e-15 0)
(0.924357 4.51238e-15 0)
(0.918393 3.04965e-15 0)
(0.883839 7.53395e-16 0)
(0.713537 4.76502e-15 0)
(0.276636 -2.75426e-15 0)
(0.0163855 3.37916e-15 0)
(8.05302e-05 -8.74884e-16 0)
(2.41486e-08 5.65951e-16 0)
(7.09998e-13 5.98477e-16 0)
(-1.76825e-16 6.39677e-16 0)
(-8.80261e-17 6.08235e-16 0)
(-1.86208e-16 4.4669e-16 0)
(-1.75681e-16 3.07912e-16 0)
(-3.99008e-16 3.74048e-16 0)
(-7.19015e-16 2.86228e-16 0)
(-8.96632e-16 3.77301e-16 0)
(-2.1684e-18 2.1684e-18 0)
(2.75485e-16 2.1684e-18 0)
(6.05844e-16 2.1684e-18 0)
(1.68558e-16 1.64798e-16 0)
(-6.48736e-16 -1.6263e-16 0)
(-6.81384e-16 -5.44268e-16 0)
(-3.32972e-16 -2.40692e-16 0)
(1.04426e-17 2.1684e-18 0)
(-3.60323e-17 0 0)
(2.00724e-16 -2.1684e-18 0)
(4.45631e-16 1.17093e-16 0)
(2.65189e-16 2.9707e-16 0)
(3.56985e-16 1.27935e-16 0)
(1.73095e-16 3.10081e-16 0)
(2.224e-16 1.27935e-16 0)
(-1.45815e-16 9.32411e-17 0)
(-5.07712e-16 2.1684e-18 0)
(2.28153e-16 2.1684e-18 0)
(9.73561e-12 1.30104e-17 0)
(2.30242e-08 4.15248e-15 0)
(6.36768e-06 8.94035e-15 0)
(0.000292547 -9.1529e-16 0)
(0.00335602 2.1028e-15 0)
(0.0147666 2.14235e-14 0)
(0.0362689 1.32809e-14 0)
(0.0644556 -1.88211e-14 0)
(0.0959919 -8.03694e-16 0)
(0.129191 2.68849e-14 0)
(0.163333 5.39804e-15 0)
(0.19809 -2.00209e-14 0)
(0.233285 2.41889e-14 0)
(0.268811 3.71731e-15 0)
(0.304597 5.35143e-15 0)
(0.340598 1.52288e-14 0)
(0.376781 -3.01667e-15 0)
(0.413128 2.38152e-14 0)
(0.449627 -1.14387e-14 0)
(0.486273 1.84219e-14 0)
(0.523067 2.84457e-14 0)
(0.560011 -2.67431e-17 0)
(0.597108 9.99481e-15 0)
(0.634361 2.26894e-14 0)
(0.671762 2.97102e-14 0)
(0.709295 2.04149e-14 0)
(0.74692 9.19923e-16 0)
(0.784553 3.16175e-14 0)
(0.821998 1.29011e-14 0)
(0.858714 4.22432e-14 0)
(0.893112 -1.45005e-15 0)
(0.920642 2.61718e-14 0)
(0.933745 2.58677e-14 0)
(0.93292 1.51102e-14 0)
(0.925602 2.40211e-14 0)
(0.926813 5.14069e-15 0)
(0.927534 7.76655e-15 0)
(0.927753 6.1764e-15 0)
(0.927956 4.59731e-15 0)
(0.928159 1.17736e-14 0)
(0.928434 2.96561e-16 0)
(0.928503 -8.77798e-16 0)
(0.928312 1.12353e-14 0)
(0.928162 1.20398e-14 0)
(0.928176 1.47418e-14 0)
(0.928177 7.13585e-15 0)
(0.928125 5.29514e-15 0)
(0.92805 2.85171e-15 0)
(0.928002 2.94059e-15 0)
(0.928046 7.07376e-15 0)
(0.9283 2.24297e-16 0)
(0.928728 1.89758e-15 0)
(0.928807 -2.59053e-15 0)
(0.92954 8.08466e-15 0)
(0.929497 -3.89211e-15 0)
(0.925507 1.30858e-15 0)
(0.925542 3.07413e-15 0)
(0.92608 -1.8625e-16 0)
(0.926581 5.58605e-15 0)
(0.927567 2.8646e-15 0)
(0.928756 2.82715e-15 0)
(0.929135 1.06778e-14 0)
(0.928544 1.17496e-14 0)
(0.927676 8.91815e-15 0)
(0.926654 8.30559e-15 0)
(0.92576 7.15901e-15 0)
(0.924357 7.16477e-15 0)
(0.918393 6.46258e-15 0)
(0.883839 9.86916e-16 0)
(0.713537 3.96984e-15 0)
(0.276636 3.63655e-15 0)
(0.0163855 -1.83871e-16 0)
(8.05302e-05 -7.96827e-16 0)
(2.41486e-08 -7.24244e-16 0)
(7.10354e-13 -5.52941e-17 0)
(6.58495e-17 5.38847e-16 0)
(3.52479e-17 7.5677e-16 0)
(-2.02287e-16 6.65698e-16 0)
(-4.0049e-16 2.5045e-16 0)
(-6.28952e-16 -1.05167e-16 0)
(-8.92361e-16 -6.39677e-17 0)
(-1.08203e-15 -1.91903e-16 0)
(4.33679e-18 0 0)
(2.59657e-16 -1.95156e-17 0)
(3.34237e-16 -2.51534e-16 0)
(-1.27751e-16 -5.009e-16 0)
(-7.20338e-16 -6.24498e-16 0)
(-3.77293e-16 -2.79723e-16 0)
(-4.02204e-17 -2.1684e-17 0)
(7.7827e-17 0 0)
(-3.45619e-17 0 0)
(2.141e-16 8.45675e-17 0)
(4.70929e-16 3.85975e-16 0)
(2.66632e-16 5.83299e-16 0)
(-1.61661e-17 3.01407e-16 0)
(5.80197e-17 -6.50519e-17 0)
(2.95432e-16 -6.50519e-17 0)
(-6.62543e-17 -9.54094e-17 0)
(-4.20295e-16 0 0)
(1.57576e-16 -1.01915e-16 0)
(9.73496e-12 -5.44268e-16 0)
(2.30242e-08 4.77264e-15 0)
(6.36768e-06 5.73761e-15 0)
(0.000292547 -5.79756e-15 0)
(0.00335602 3.19661e-16 0)
(0.0147666 1.77149e-14 0)
(0.0362689 1.30259e-14 0)
(0.0644556 -1.11211e-14 0)
(0.0959919 -5.47995e-15 0)
(0.129191 2.24555e-14 0)
(0.163333 2.89234e-15 0)
(0.19809 -1.81631e-14 0)
(0.233285 1.993e-14 0)
(0.268811 1.0316e-15 0)
(0.304597 5.94744e-15 0)
(0.340598 1.36142e-14 0)
(0.376781 -5.04787e-15 0)
(0.413128 1.96121e-14 0)
(0.449627 -1.08688e-14 0)
(0.486273 1.60976e-14 0)
(0.523067 2.68161e-14 0)
(0.560011 -2.43719e-15 0)
(0.597108 1.14273e-14 0)
(0.634361 1.63971e-14 0)
(0.671762 2.51625e-14 0)
(0.709295 1.44533e-14 0)
(0.74692 6.44159e-16 0)
(0.784553 2.11163e-14 0)
(0.821998 1.49562e-14 0)
(0.858714 3.17519e-14 0)
(0.893112 3.20609e-15 0)
(0.920642 2.59849e-14 0)
(0.933745 2.08801e-14 0)
(0.93292 1.20182e-14 0)
(0.925602 1.35956e-14 0)
(0.926813 7.60475e-15 0)
(0.927534 7.32225e-15 0)
(0.927753 5.22611e-15 0)
(0.927956 3.6319e-15 0)
(0.928159 1.00909e-14 0)
(0.928434 -2.25953e-15 0)
(0.928503 -9.27413e-16 0)
(0.928312 8.25842e-15 0)
(0.928162 1.08923e-14 0)
(0.928176 1.25823e-14 0)
(0.928177 5.13983e-15 0)
(0.928125 5.48678e-15 0)
(0.92805 1.61727e-15 0)
(0.928002 1.30558e-15 0)
(0.928046 5.9277e-15 0)
(0.9283 -1.94985e-15 0)
(0.928728 2.35223e-15 0)
(0.928807 -5.64852e-16 0)
(0.92954 7.9029e-15 0)
(0.929497 -4.09545e-15 0)
(0.925507 2.48839e-16 0)
(0.925542 5.68375e-15 0)
(0.92608 2.58177e-15 0)
(0.926581 5.43798e-15 0)
(0.927567 1.6782e-15 0)
(0.928756 1.01189e-15 0)
(0.929135 8.12332e-15 0)
(0.928544 9.20961e-15 0)
(0.927676 6.26642e-15 0)
(0.926654 9.18425e-15 0)
(0.92576 5.81657e-15 0)
(0.924357 3.44427e-15 0)
(0.918393 4.48224e-15 0)
(0.883839 4.99798e-16 0)
(0.713537 1.18032e-15 0)
(0.276636 6.35358e-15 0)
(0.0163855 -2.86069e-15 0)
(8.05302e-05 5.94097e-16 0)
(2.41486e-08 -7.42676e-16 0)
(7.11173e-13 -3.67543e-16 0)
(3.17634e-16 1.89735e-16 0)
(1.2428e-16 4.88973e-16 0)
(-2.85166e-16 4.27174e-16 0)
(-6.31979e-16 1.30104e-17 0)
(-8.53516e-16 -2.48281e-16 0)
(-7.51966e-16 -2.43945e-16 0)
(-8.53264e-16 -3.45859e-16 0)
(5.63783e-17 0 0)
(3.01114e-16 -2.1684e-16 0)
(5.60881e-18 -5.78962e-16 0)
(-1.79351e-16 -9.54094e-16 0)
(-3.76287e-16 -7.5677e-16 0)
(-3.83102e-17 -3.83806e-16 0)
(2.47923e-16 -1.0842e-17 0)
(1.90045e-16 3.46943e-17 0)
(-1.26231e-17 0 0)
(2.27991e-16 0 0)
(4.30161e-16 1.23599e-16 0)
(4.09563e-17 2.9707e-16 0)
(-2.76706e-16 3.25259e-17 0)
(-2.39321e-17 -5.20415e-17 0)
(2.35181e-16 0 0)
(-4.76815e-17 -9.32411e-17 0)
(-3.14468e-16 0 0)
(3.03638e-17 0 0)
(9.73476e-12 -2.27682e-16 0)
(2.30242e-08 9.21569e-16 0)
(6.36768e-06 1.01048e-15 0)
(0.000292547 -4.59814e-15 0)
(0.00335602 -5.26244e-16 0)
(0.0147666 1.4114e-14 0)
(0.0362689 6.62589e-15 0)
(0.0644556 1.55764e-16 0)
(0.0959919 -1.12811e-14 0)
(0.129191 2.20039e-14 0)
(0.163333 2.482e-16 0)
(0.19809 -1.28741e-14 0)
(0.233285 2.00798e-14 0)
(0.268811 -3.00997e-16 0)
(0.304597 4.6735e-15 0)
(0.340598 1.50611e-14 0)
(0.376781 -4.43158e-15 0)
(0.413128 1.4034e-14 0)
(0.449627 -6.9357e-15 0)
(0.486273 1.32304e-14 0)
(0.523067 2.24682e-14 0)
(0.560011 -2.9043e-15 0)
(0.597108 1.01499e-14 0)
(0.634361 1.29765e-14 0)
(0.671762 2.10903e-14 0)
(0.709295 1.11408e-14 0)
(0.74692 5.13943e-15 0)
(0.784553 1.34167e-14 0)
(0.821998 2.16622e-14 0)
(0.858714 2.04838e-14 0)
(0.893112 5.87149e-15 0)
(0.920642 2.47809e-14 0)
(0.933745 2.0739e-14 0)
(0.93292 1.38236e-14 0)
(0.925602 1.04528e-14 0)
(0.926813 7.61683e-15 0)
(0.927534 8.21403e-15 0)
(0.927753 3.52628e-15 0)
(0.927956 4.17475e-15 0)
(0.928159 8.00596e-15 0)
(0.928434 2.93697e-16 0)
(0.928503 4.98468e-15 0)
(0.928312 5.38515e-15 0)
(0.928162 7.62413e-15 0)
(0.928176 9.2676e-15 0)
(0.928177 5.89323e-15 0)
(0.928125 4.46058e-15 0)
(0.92805 4.35081e-15 0)
(0.928002 2.28797e-15 0)
(0.928046 6.03149e-15 0)
(0.9283 -8.78288e-16 0)
(0.928728 1.829e-15 0)
(0.928807 3.0978e-15 0)
(0.92954 6.23691e-15 0)
(0.929497 -8.8212e-16 0)
(0.925507 -1.27741e-17 0)
(0.925542 4.79536e-15 0)
(0.92608 3.3952e-15 0)
(0.926581 4.08067e-15 0)
(0.927567 2.12586e-15 0)
(0.928756 2.19593e-15 0)
(0.929135 5.00506e-15 0)
(0.928544 5.59847e-15 0)
(0.927676 4.16671e-15 0)
(0.926654 5.88737e-15 0)
(0.92576 4.43527e-15 0)
(0.924357 2.50915e-15 0)
(0.918393 2.59952e-15 0)
(0.883839 1.75616e-15 0)
(0.713537 7.55697e-16 0)
(0.276636 2.32826e-15 0)
(0.0163855 -1.38972e-16 0)
(8.05302e-05 -4.31479e-16 0)
(2.41486e-08 -3.06828e-16 0)
(7.11398e-13 -1.01915e-16 0)
(4.73869e-16 0 0)
(1.27427e-16 7.58939e-18 0)
(-3.55857e-16 1.0083e-16 0)
(-7.00159e-16 1.01915e-16 0)
(-7.46752e-16 -5.96309e-17 0)
(-6.44286e-16 -4.33679e-17 0)
(-6.44014e-16 -1.34441e-16 0)
(4.29343e-16 1.99492e-16 0)
(4.13478e-16 0 0)
(-5.52518e-18 -2.40692e-16 0)
(-1.39103e-16 -5.98477e-16 0)
(-9.34158e-17 -3.72964e-16 0)
(1.03442e-16 -4.33679e-17 0)
(4.30768e-16 2.51534e-16 0)
(2.28226e-16 4.53195e-16 0)
(2.14144e-17 2.92734e-16 0)
(2.71986e-16 8.89043e-17 0)
(4.35064e-16 0 0)
(7.10028e-17 0 0)
(-2.99512e-16 0 0)
(-8.63334e-18 -7.37255e-17 0)
(2.42707e-16 0 0)
(-6.78011e-17 9.32411e-17 0)
(-3.7976e-16 9.97462e-17 0)
(-4.03198e-17 0 0)
(9.73458e-12 -8.89043e-17 0)
(2.30242e-08 -1.1254e-15 0)
(6.36768e-06 -3.98553e-15 0)
(0.000292547 -8.56729e-16 0)
(0.00335602 -1.17426e-16 0)
(0.0147666 1.01947e-14 0)
(0.0362689 -3.40575e-15 0)
(0.0644556 1.18621e-14 0)
(0.0959919 -1.39982e-14 0)
(0.129191 1.94271e-14 0)
(0.163333 -2.26872e-15 0)
(0.19809 -8.46448e-15 0)
(0.233285 1.92087e-14 0)
(0.268811 -2.49417e-15 0)
(0.304597 5.08591e-15 0)
(0.340598 1.5821e-14 0)
(0.376781 -4.5009e-15 0)
(0.413128 8.96827e-15 0)
(0.449627 -2.9591e-15 0)
(0.486273 1.11541e-14 0)
(0.523067 1.5781e-14 0)
(0.560011 -1.99147e-15 0)
(0.597108 8.92878e-15 0)
(0.634361 9.51301e-15 0)
(0.671762 1.67209e-14 0)
(0.709295 7.82525e-15 0)
(0.74692 9.39727e-15 0)
(0.784553 5.50076e-15 0)
(0.821998 2.80166e-14 0)
(0.858714 8.77384e-15 0)
(0.893112 9.50891e-15 0)
(0.920642 2.54176e-14 0)
(0.933745 2.09499e-14 0)
(0.93292 1.24929e-14 0)
(0.925602 1.06076e-14 0)
(0.926813 8.41212e-15 0)
(0.927534 6.90466e-15 0)
(0.927753 3.04938e-15 0)
(0.927956 4.59477e-15 0)
(0.928159 7.32784e-15 0)
(0.928434 1.8481e-15 0)
(0.928503 6.76954e-15 0)
(0.928312 5.15821e-15 0)
(0.928162 7.19829e-15 0)
(0.928176 5.85245e-15 0)
(0.928177 5.75063e-15 0)
(0.928125 3.36444e-15 0)
(0.92805 4.90396e-15 0)
(0.928002 2.1858e-15 0)
(0.928046 7.29012e-15 0)
(0.9283 5.53076e-16 0)
(0.928728 9.85585e-16 0)
(0.928807 1.6556e-15 0)
(0.92954 1.7527e-15 0)
(0.929497 1.88298e-15 0)
(0.925507 7.1126e-16 0)
(0.925542 2.27679e-15 0)
(0.92608 2.55399e-15 0)
(0.926581 2.201e-15 0)
(0.927567 2.58327e-15 0)
(0.928756 3.95534e-15 0)
(0.929135 2.65013e-15 0)
(0.928544 2.71743e-15 0)
(0.927676 2.08796e-15 0)
(0.926654 1.27888e-15 0)
(0.92576 3.0412e-15 0)
(0.924357 2.15158e-15 0)
(0.918393 9.39302e-16 0)
(0.883839 2.14871e-15 0)
(0.713537 3.44437e-16 0)
(0.276636 -6.62372e-16 0)
(0.0163855 1.96057e-15 0)
(8.05302e-05 -1.04617e-15 0)
(2.41486e-08 -2.49366e-17 0)
(7.1146e-13 -1.6263e-17 0)
(5.47528e-16 -2.1684e-16 0)
(3.44912e-16 -3.50196e-16 0)
(-5.02322e-17 -8.56517e-17 0)
(-6.16915e-16 2.32018e-16 0)
(-9.02291e-16 1.90819e-16 0)
(-8.02685e-16 2.92734e-16 0)
(-7.6436e-16 2.27682e-16 0)
(8.26159e-16 4.87889e-16 0)
(5.55981e-16 1.84314e-16 0)
(-2.3552e-17 1.25767e-16 0)
(-3.04279e-16 -2.27682e-16 0)
(-1.49874e-16 2.1684e-18 0)
(2.85138e-16 1.36609e-16 0)
(4.93599e-16 5.74625e-16 0)
(2.31796e-16 8.34833e-16 0)
(2.94588e-17 6.31003e-16 0)
(2.82333e-16 3.3827e-16 0)
(3.77377e-16 1.53956e-16 0)
(7.09725e-17 -1.53956e-16 0)
(-2.39157e-16 -7.80623e-17 0)
(-8.91124e-18 -2.58039e-16 0)
(2.46963e-16 -4.11995e-17 0)
(-1.02834e-16 4.33679e-17 0)
(-4.17271e-16 3.57785e-16 0)
(-4.45602e-17 1.71303e-16 0)
(9.73417e-12 -3.98985e-16 0)
(2.30242e-08 -4.20018e-15 0)
(6.36768e-06 -8.62159e-15 0)
(0.000292547 -6.89721e-16 0)
(0.00335602 3.73808e-15 0)
(0.0147666 1.73021e-15 0)
(0.0362689 -1.17155e-14 0)
(0.0644556 1.80698e-14 0)
(0.0959919 -1.23743e-14 0)
(0.129191 1.77186e-14 0)
(0.163333 -3.80158e-15 0)
(0.19809 -4.06639e-15 0)
(0.233285 1.91318e-14 0)
(0.268811 -3.48746e-15 0)
(0.304597 7.12818e-15 0)
(0.340598 1.77215e-14 0)
(0.376781 -2.3823e-15 0)
(0.413128 6.75228e-15 0)
(0.449627 1.76451e-15 0)
(0.486273 1.10841e-14 0)
(0.523067 7.81727e-15 0)
(0.560011 -5.41993e-16 0)
(0.597108 9.30997e-15 0)
(0.634361 7.36491e-15 0)
(0.671762 1.3763e-14 0)
(0.709295 7.13216e-15 0)
(0.74692 1.20836e-14 0)
(0.784553 -1.52731e-15 0)
(0.821998 3.09365e-14 0)
(0.858714 4.06207e-16 0)
(0.893112 9.32335e-15 0)
(0.920642 2.80706e-14 0)
(0.933745 2.00124e-14 0)
(0.93292 1.19309e-14 0)
(0.925602 9.78551e-15 0)
(0.926813 9.98493e-15 0)
(0.927534 4.409e-15 0)
(0.927753 1.69856e-15 0)
(0.927956 5.66455e-15 0)
(0.928159 5.2149e-15 0)
(0.928434 2.88288e-15 0)
(0.928503 9.6491e-15 0)
(0.928312 5.65277e-15 0)
(0.928162 7.01207e-15 0)
(0.928176 2.6859e-15 0)
(0.928177 5.67583e-15 0)
(0.928125 3.79146e-15 0)
(0.92805 5.16347e-15 0)
(0.928002 1.487e-15 0)
(0.928046 5.20254e-15 0)
(0.9283 2.15525e-15 0)
(0.928728 1.00947e-16 0)
(0.928807 1.83471e-15 0)
(0.92954 -1.33261e-15 0)
(0.929497 5.36396e-15 0)
(0.925507 5.05853e-15 0)
(0.925542 7.87052e-16 0)
(0.92608 2.56119e-15 0)
(0.926581 8.31353e-16 0)
(0.927567 3.26451e-15 0)
(0.928756 4.15618e-15 0)
(0.929135 1.07949e-16 0)
(0.928544 2.6433e-16 0)
(0.927676 3.74145e-16 0)
(0.926654 -2.82407e-15 0)
(0.92576 1.80918e-15 0)
(0.924357 -1.16531e-15 0)
(0.918393 -1.48654e-15 0)
(0.883839 1.41011e-15 0)
(0.713537 -1.29027e-15 0)
(0.276636 -2.06851e-15 0)
(0.0163855 3.51599e-15 0)
(8.05302e-05 1.37358e-15 0)
(2.41486e-08 1.45283e-16 0)
(7.11242e-13 3.79469e-16 0)
(5.16716e-16 -4.20669e-16 0)
(4.03556e-16 -5.84383e-16 0)
(1.25783e-16 -3.08997e-16 0)
(-4.30996e-16 7.58939e-17 0)
(-8.57359e-16 3.93564e-16 0)
(-9.11988e-16 5.43183e-16 0)
(-1.01373e-15 4.803e-16 0)
(1.06035e-15 2.40692e-16 0)
(6.29823e-16 1.04083e-16 0)
(-1.32138e-17 1.34441e-16 0)
(-3.23806e-16 2.7105e-16 0)
(2.42742e-18 1.06251e-16 0)
(4.0848e-16 2.75386e-16 0)
(6.78865e-16 3.9248e-16 0)
(2.97523e-16 4.87889e-16 0)
(-1.54999e-16 4.44521e-16 0)
(3.05789e-16 2.64544e-16 0)
(4.02563e-18 -4.33679e-17 0)
(-1.61064e-16 -2.60208e-16 0)
(-2.26205e-16 -1.73472e-17 0)
(-2.39777e-17 1.06251e-16 0)
(2.60981e-16 3.03576e-17 0)
(8.50217e-17 -1.43114e-16 0)
(-1.94579e-16 1.12757e-16 0)
(-7.49654e-17 2.40692e-16 0)
(9.73343e-12 -6.72203e-17 0)
(2.30242e-08 -2.086e-15 0)
(6.36768e-06 -6.31224e-15 0)
(0.000292547 -1.53344e-15 0)
(0.00335602 6.98035e-15 0)
(0.0147666 -8.08019e-16 0)
(0.0362689 -1.52264e-14 0)
(0.0644556 1.8213e-14 0)
(0.0959919 -8.16991e-15 0)
(0.129191 1.17212e-14 0)
(0.163333 -3.51471e-15 0)
(0.19809 -1.80243e-15 0)
(0.233285 1.50254e-14 0)
(0.268811 -5.21134e-15 0)
(0.304597 5.77796e-15 0)
(0.340598 1.57932e-14 0)
(0.376781 -6.93141e-16 0)
(0.413128 5.63261e-15 0)
(0.449627 3.58055e-15 0)
(0.486273 1.20382e-14 0)
(0.523067 -7.8724e-16 0)
(0.560011 1.62776e-15 0)
(0.597108 8.57621e-15 0)
(0.634361 4.25031e-15 0)
(0.671762 8.92902e-15 0)
(0.709295 7.0377e-15 0)
(0.74692 1.30557e-14 0)
(0.784553 -2.90112e-15 0)
(0.821998 2.98723e-14 0)
(0.858714 -4.44571e-15 0)
(0.893112 1.16705e-14 0)
(0.920642 2.0684e-14 0)
(0.933745 1.84543e-14 0)
(0.93292 1.41784e-14 0)
(0.925602 1.2692e-14 0)
(0.926813 6.35191e-15 0)
(0.927534 6.93837e-15 0)
(0.927753 4.34517e-15 0)
(0.927956 7.31249e-15 0)
(0.928159 2.31851e-15 0)
(0.928434 4.58079e-15 0)
(0.928503 7.60249e-15 0)
(0.928312 5.91372e-15 0)
(0.928162 5.65446e-15 0)
(0.928176 3.41292e-15 0)
(0.928177 5.9327e-15 0)
(0.928125 3.38712e-15 0)
(0.92805 5.68506e-15 0)
(0.928002 1.9759e-15 0)
(0.928046 1.95708e-15 0)
(0.9283 2.18984e-15 0)
(0.928728 3.3906e-16 0)
(0.928807 3.41537e-15 0)
(0.92954 -7.12207e-16 0)
(0.929497 4.13008e-15 0)
(0.925507 6.86376e-15 0)
(0.925542 1.28192e-15 0)
(0.92608 3.30927e-15 0)
(0.926581 1.89972e-15 0)
(0.927567 4.19473e-15 0)
(0.928756 2.49258e-15 0)
(0.929135 -4.95237e-16 0)
(0.928544 -6.23245e-16 0)
(0.927676 6.24087e-16 0)
(0.926654 -1.84319e-15 0)
(0.92576 -2.06939e-15 0)
(0.924357 -2.45084e-15 0)
(0.918393 -2.5245e-15 0)
(0.883839 7.92491e-17 0)
(0.713537 -1.90868e-15 0)
(0.276636 1.52389e-16 0)
(0.0163855 8.99042e-16 0)
(8.05302e-05 3.48544e-15 0)
(2.41486e-08 4.08743e-16 0)
(7.10136e-13 1.53956e-16 0)
(3.64348e-16 -2.05998e-16 0)
(5.08283e-16 -3.39354e-16 0)
(2.36526e-16 -2.19008e-16 0)
(-2.80438e-16 -1.31188e-16 0)
(-6.78635e-16 2.14671e-16 0)
(-9.69305e-16 3.39354e-16 0)
(-1.20021e-15 3.5128e-16 0)
(8.45675e-16 -2.1684e-18 0)
(5.15609e-16 2.55871e-16 0)
(5.96008e-17 3.07912e-16 0)
(-2.10519e-18 5.87635e-16 0)
(2.07452e-16 3.85975e-16 0)
(4.22491e-16 5.52941e-16 0)
(4.19904e-16 3.83806e-16 0)
(1.71977e-16 1.34441e-16 0)
(1.01084e-16 1.97324e-16 0)
(-8.96124e-17 -1.32272e-16 0)
(-3.26462e-16 -3.79469e-16 0)
(-6.80138e-17 -1.27935e-16 0)
(-2.32637e-16 2.21176e-16 0)
(1.7165e-17 4.77047e-16 0)
(2.36986e-16 2.62376e-16 0)
(8.54519e-17 3.03576e-17 0)
(-5.76883e-17 9.75778e-17 0)
(1.95351e-16 3.81638e-16 0)
(9.73405e-12 -4.55363e-17 0)
(2.30242e-08 2.20526e-15 0)
(6.36768e-06 2.20093e-15 0)
(0.000292547 -1.92601e-15 0)
(0.00335602 3.92726e-15 0)
(0.0147666 3.87102e-15 0)
(0.0362689 -1.33099e-14 0)
(0.0644556 1.66771e-14 0)
(0.0959919 -4.12085e-15 0)
(0.129191 3.51394e-15 0)
(0.163333 4.25308e-16 0)
(0.19809 1.58773e-15 0)
(0.233285 9.29342e-15 0)
(0.268811 -7.35936e-15 0)
(0.304597 4.045e-15 0)
(0.340598 1.41378e-14 0)
(0.376781 2.22558e-15 0)
(0.413128 3.16124e-15 0)
(0.449627 4.45636e-15 0)
(0.486273 1.34635e-14 0)
(0.523067 -5.01628e-15 0)
(0.560011 3.95619e-15 0)
(0.597108 7.39296e-15 0)
(0.634361 1.91388e-15 0)
(0.671762 4.27927e-15 0)
(0.709295 4.15957e-15 0)
(0.74692 1.35678e-14 0)
(0.784553 -1.31638e-15 0)
(0.821998 2.7099e-14 0)
(0.858714 -1.16684e-14 0)
(0.893112 1.36588e-14 0)
(0.920642 1.84417e-14 0)
(0.933745 1.59469e-14 0)
(0.93292 1.11545e-14 0)
(0.925602 1.16588e-14 0)
(0.926813 3.88467e-15 0)
(0.927534 5.6942e-15 0)
(0.927753 5.41954e-15 0)
(0.927956 7.18108e-15 0)
(0.928159 1.53093e-15 0)
(0.928434 8.8262e-15 0)
(0.928503 3.67498e-15 0)
(0.928312 4.67605e-15 0)
(0.928162 3.26626e-15 0)
(0.928176 5.49164e-15 0)
(0.928177 5.39924e-15 0)
(0.928125 1.9454e-15 0)
(0.92805 3.1608e-15 0)
(0.928002 4.32248e-15 0)
(0.928046 5.08456e-16 0)
(0.9283 1.35684e-15 0)
(0.928728 3.39985e-15 0)
(0.928807 3.9853e-15 0)
(0.92954 3.43584e-15 0)
(0.929497 2.17388e-15 0)
(0.925507 4.06471e-15 0)
(0.925542 3.84575e-15 0)
(0.92608 4.34702e-15 0)
(0.926581 4.51614e-15 0)
(0.927567 4.77535e-15 0)
(0.928756 2.34605e-15 0)
(0.929135 3.30704e-15 0)
(0.928544 2.51241e-15 0)
(0.927676 2.97374e-15 0)
(0.926654 2.04151e-15 0)
(0.92576 -3.78297e-16 0)
(0.924357 -2.07178e-16 0)
(0.918393 -1.47524e-15 0)
(0.883839 -3.04105e-15 0)
(0.713537 -1.41906e-15 0)
(0.276636 1.88321e-15 0)
(0.0163855 -3.36633e-15 0)
(8.05302e-05 1.71508e-15 0)
(2.41486e-08 -1.19262e-16 0)
(7.10589e-13 2.41776e-16 0)
(2.19072e-16 3.1767e-16 0)
(3.14428e-16 1.46367e-16 0)
(5.13491e-17 -1.53956e-16 0)
(-3.43322e-16 -3.10081e-16 0)
(-6.40314e-16 -9.75778e-18 0)
(-8.94445e-16 8.99885e-17 0)
(-1.10046e-15 2.5045e-16 0)
(1.03866e-15 -2.1684e-16 0)
(6.27395e-16 -9.97462e-17 0)
(9.42344e-17 -4.98731e-17 0)
(-2.27382e-17 2.62376e-16 0)
(3.26198e-16 2.05998e-16 0)
(6.47423e-16 2.55871e-16 0)
(3.24825e-16 -6.72203e-17 0)
(1.4465e-16 -3.96817e-16 0)
(-1.6282e-16 -2.73218e-16 0)
(-4.17121e-16 -5.20415e-16 0)
(-8.07824e-17 -1.77809e-16 0)
(1.86192e-16 1.34441e-16 0)
(-4.88508e-17 3.68627e-17 0)
(-2.13009e-16 2.51534e-16 0)
(-4.1687e-17 -4.33679e-18 0)
(2.69254e-16 -9.10727e-17 0)
(2.17422e-16 -1.82145e-16 0)
(5.87901e-16 -4.33679e-17 0)
(9.73279e-12 -1.79977e-16 0)
(2.30242e-08 2.02745e-15 0)
(6.36768e-06 5.72243e-15 0)
(0.000292547 -1.86528e-16 0)
(0.00335602 -4.43829e-15 0)
(0.0147666 9.07045e-15 0)
(0.0362689 -1.46405e-14 0)
(0.0644556 1.65454e-14 0)
(0.0959919 -1.29791e-15 0)
(0.129191 -2.03668e-15 0)
(0.163333 4.04105e-15 0)
(0.19809 5.00746e-15 0)
(0.233285 4.12363e-15 0)
(0.268811 -6.35103e-15 0)
(0.304597 4.43904e-15 0)