/*--------------------------------*- C++ -*----------------------------------*\
| =========                 |                                                 |
| \\      /  F ield         | OpenFOAM: The Open Source CFD Toolbox           |
|  \\    /   O peration     | Version:  4.1                                   |
|   \\  /    A nd           | Web:      www.OpenFOAM.org                      |
|    \\/     M anipulation  |                                                 |
\*---------------------------------------------------------------------------*/
FoamFile
{
    version     2.0;
    format      ascii;
    class       volVectorField;
    location    "0.34";
    object      U;
}
// * * * * * * * * * * * * * * * * * * * * * * * * * * * * * * * * * * * * * //

dimensions      [0 1 -1 0 0 0 0];

internalField   nonuniform List<vector> 
10000
(
(0 0 0)
(1.62686e-16 0 0)
(3.03321e-16 0 0)
(1.00073e-16 1.56125e-16 0)
(-1.23238e-16 0 0)
(-2.89348e-16 0 0)
(-2.6094e-16 0 0)
(-4.00845e-17 0 0)
(-1.4131e-21 0 0)
(2.37333e-16 1.49619e-16 0)
(4.99129e-16 0 0)
(1.6567e-16 -1.56125e-16 0)
(-2.15498e-16 0 0)
(4.67087e-17 0 0)
(1.61376e-16 0 0)
(-4.8832e-17 1.32272e-16 0)
(-2.58375e-16 0 0)
(-1.44867e-16 0 0)
(-4.06015e-17 0 0)
(-2.06195e-16 0 0)
(-4.0014e-19 0 0)
(7.1909e-17 1.53956e-16 0)
(1.65389e-16 0 0)
(2.02448e-13 1.04083e-16 0)
(1.36304e-09 3.5128e-16 0)
(9.25182e-07 2.86229e-16 0)
(8.82494e-05 -1.1836e-14 0)
(0.00174107 6.47135e-15 0)
(0.0109286 -7.40394e-15 0)
(0.0329634 2.01365e-15 0)
(0.065463 1.23656e-14 0)
(0.103626 1.06511e-14 0)
(0.144555 1.16652e-14 0)
(0.186974 7.36711e-15 0)
(0.230319 6.29538e-15 0)
(0.274306 2.018e-14 0)
(0.318772 -2.22621e-14 0)
(0.363621 1.47339e-14 0)
(0.408794 -9.2937e-15 0)
(0.454261 1.06977e-14 0)
(0.500011 1.34965e-14 0)
(0.546049 6.65313e-14 0)
(0.592382 5.26399e-14 0)
(0.639015 4.1989e-14 0)
(0.685933 9.73863e-15 0)
(0.733071 2.37658e-14 0)
(0.780233 -7.65397e-15 0)
(0.826957 5.4614e-14 0)
(0.8717 5.73312e-14 0)
(0.910352 -1.16407e-14 0)
(0.933333 -4.1828e-14 0)
(0.935926 -7.78769e-16 0)
(0.925117 9.74393e-15 0)
(0.926483 1.1639e-14 0)
(0.927524 1.25921e-14 0)
(0.927751 1.35323e-14 0)
(0.927923 9.09902e-15 0)
(0.928011 7.48343e-15 0)
(0.928288 6.86225e-15 0)
(0.928419 6.2672e-15 0)
(0.928235 5.36403e-15 0)
(0.928088 8.14969e-15 0)
(0.928114 5.88536e-15 0)
(0.928241 7.53608e-15 0)
(0.928503 5.84299e-15 0)
(0.928968 2.15983e-15 0)
(0.929377 -4.7021e-15 0)
(0.927412 -3.24643e-15 0)
(0.92639 -1.06573e-14 0)
(0.930827 -8.2322e-15 0)
(0.930339 -5.41338e-15 0)
(0.928046 -6.10815e-15 0)
(0.926145 -4.4776e-15 0)
(0.925319 -2.85015e-15 0)
(0.925129 -2.62033e-15 0)
(0.925908 -4.03696e-15 0)
(0.925588 -4.10164e-15 0)
(0.921771 -4.8826e-15 0)
(0.894379 -5.05984e-15 0)
(0.74829 -4.15992e-15 0)
(0.329226 -1.78455e-15 0)
(0.0247115 3.38633e-16 0)
(0.000157504 5.8972e-16 0)
(6.29128e-08 9.8662e-17 0)
(1.90563e-12 2.33103e-16 0)
(5.96468e-18 0 0)
(-2.28254e-16 0 0)
(-1.12186e-16 0 0)
(-9.71232e-17 0 0)
(-2.09451e-16 0 0)
(-2.80197e-16 -6.50519e-18 0)
(-4.30588e-16 0 0)
(-2.45497e-16 1.18178e-16 0)
(4.37206e-17 0 0)
(2.56876e-16 0 0)
(1.93918e-17 0 0)
(-2.35189e-16 1.76724e-16 0)
(-3.11061e-16 1.37693e-16 0)
(-2.33134e-16 6.83045e-17 0)
(-1.04083e-16 1.46367e-16 0)
(0 0 0)
(2.05816e-16 0 0)
(3.06386e-16 1.38777e-16 0)
(1.01424e-16 3.40438e-16 0)
(-1.20296e-16 1.25767e-16 0)
(-3.20441e-16 2.53702e-16 0)
(-3.08779e-16 4.98731e-17 0)
(-4.70649e-17 0 0)
(-6.37725e-20 0 0)
(2.42835e-16 0 0)
(5.42776e-16 0 0)
(1.81667e-16 0 0)
(-1.82272e-16 0 0)
(6.76472e-17 0 0)
(1.6519e-16 1.30104e-16 0)
(-4.91267e-17 3.16586e-16 0)
(-2.63134e-16 1.27935e-16 0)
(-1.5976e-16 0 0)
(-6.24724e-17 0 0)
(-2.2043e-16 0 0)
(-8.67606e-20 0 0)
(1.62036e-16 2.1684e-18 0)
(1.5248e-17 0 0)
(2.02838e-13 6.50519e-16 0)
(1.36304e-09 1.69785e-15 0)
(9.25182e-07 2.54787e-15 0)
(8.82494e-05 -7.82633e-15 0)
(0.00174107 1.50926e-14 0)
(0.0109286 -3.83219e-15 0)
(0.0329634 -6.85599e-15 0)
(0.065463 2.24993e-14 0)
(0.103626 -9.37779e-15 0)
(0.144555 1.33525e-14 0)
(0.186974 6.96349e-15 0)
(0.230319 6.8707e-15 0)
(0.274306 9.96833e-15 0)
(0.318772 -5.62595e-15 0)
(0.363621 2.26414e-14 0)
(0.408794 -8.63286e-15 0)
(0.454261 1.28321e-14 0)
(0.500011 2.69357e-14 0)
(0.546049 2.13593e-14 0)
(0.592382 1.9577e-14 0)
(0.639015 3.00196e-14 0)
(0.685933 2.56721e-14 0)
(0.733071 2.53997e-14 0)
(0.780233 5.7325e-15 0)
(0.826957 3.05023e-14 0)
(0.8717 2.23284e-14 0)
(0.910352 2.078e-14 0)
(0.933333 -2.33367e-14 0)
(0.935926 2.65449e-15 0)
(0.925117 7.72319e-15 0)
(0.926483 1.14522e-14 0)
(0.927524 9.34579e-15 0)
(0.927751 1.11236e-14 0)
(0.927923 6.19742e-15 0)
(0.928011 5.09592e-15 0)
(0.928288 5.95691e-15 0)
(0.928419 6.19876e-15 0)
(0.928235 1.11823e-14 0)
(0.928088 1.21083e-14 0)
(0.928114 9.20749e-15 0)
(0.928241 6.3274e-15 0)
(0.928503 7.48928e-15 0)
(0.928968 2.2782e-15 0)
(0.929377 2.96302e-15 0)
(0.927412 1.30588e-15 0)
(0.92639 -9.09836e-15 0)
(0.930827 -7.57348e-16 0)
(0.930339 -6.95214e-15 0)
(0.928046 -3.07618e-15 0)
(0.926145 -2.68306e-15 0)
(0.925319 -1.64005e-15 0)
(0.925129 7.09031e-16 0)
(0.925908 3.34045e-15 0)
(0.925588 2.56276e-15 0)
(0.921771 6.01148e-16 0)
(0.894379 -1.32381e-15 0)
(0.74829 -4.43639e-15 0)
(0.329226 -1.48975e-15 0)
(0.0247115 2.78125e-16 0)
(0.000157504 1.17077e-15 0)
(6.29128e-08 6.29919e-16 0)
(1.90537e-12 6.17993e-16 0)
(-3.52383e-18 -1.0842e-18 0)
(-2.25665e-16 0 0)
(-1.22363e-16 2.27682e-17 0)
(-1.46083e-16 0 0)
(-2.60065e-16 4.33679e-17 0)
(-1.86181e-16 4.01153e-17 0)
(-3.02699e-16 1.99492e-16 0)
(-1.80478e-16 3.20923e-16 0)
(1.30421e-17 1.2902e-16 0)
(2.23674e-16 0 0)
(-9.79607e-18 5.31257e-17 0)
(-2.62301e-16 3.01407e-16 0)
(-3.69504e-16 3.41522e-16 0)
(-3.318e-16 2.58039e-16 0)
(-3.07912e-16 3.5128e-16 0)
(0 0 0)
(2.56931e-16 0 0)
(5.24166e-16 0 0)
(1.15539e-16 1.06251e-16 0)
(-3.52354e-16 3.44775e-16 0)
(-3.24918e-16 5.76793e-16 0)
(-3.39502e-16 2.55871e-16 0)
(-3.70048e-17 0 0)
(-1.24449e-18 0 0)
(2.51891e-16 0 0)
(5.75911e-16 0 0)
(2.1251e-16 2.1684e-18 0)
(-1.48052e-16 6.50519e-17 0)
(8.51466e-17 2.86228e-16 0)
(3.29767e-16 1.6263e-16 0)
(-3.79156e-17 7.80623e-17 0)
(-4.06577e-16 0 0)
(-1.683e-16 0 0)
(-9.10719e-17 1.01915e-16 0)
(-2.17667e-16 0 0)
(2.32655e-18 0 0)
(2.29181e-16 2.38524e-17 0)
(1.69041e-16 1.71303e-16 0)
(2.03439e-13 7.11234e-16 0)
(1.36304e-09 5.60097e-15 0)
(9.25182e-07 5.40799e-15 0)
(8.82494e-05 -5.40622e-15 0)
(0.00174107 2.12273e-14 0)
(0.0109286 2.33302e-15 0)
(0.0329634 -2.09292e-14 0)
(0.065463 3.47056e-14 0)
(0.103626 -1.3725e-14 0)
(0.144555 1.20272e-14 0)
(0.186974 6.15496e-15 0)
(0.230319 6.83102e-15 0)
(0.274306 8.95913e-15 0)
(0.318772 -9.42665e-16 0)
(0.363621 2.49705e-14 0)
(0.408794 -7.97357e-15 0)
(0.454261 1.18296e-14 0)
(0.500011 3.31265e-14 0)
(0.546049 8.30013e-15 0)
(0.592382 8.90304e-15 0)
(0.639015 2.25502e-14 0)
(0.685933 2.89257e-14 0)
(0.733071 2.0827e-14 0)
(0.780233 9.0365e-15 0)
(0.826957 2.13326e-14 0)
(0.8717 1.18176e-14 0)
(0.910352 2.17888e-14 0)
(0.933333 -1.73405e-14 0)
(0.935926 3.94837e-15 0)
(0.925117 8.524e-15 0)
(0.926483 1.33014e-14 0)
(0.927524 9.37377e-15 0)
(0.927751 8.54271e-15 0)
(0.927923 2.21003e-15 0)
(0.928011 2.33986e-15 0)
(0.928288 3.03838e-15 0)
(0.928419 4.4778e-15 0)
(0.928235 9.25712e-15 0)
(0.928088 1.08871e-14 0)
(0.928114 8.80132e-15 0)
(0.928241 7.16418e-15 0)
(0.928503 7.78945e-15 0)
(0.928968 4.21813e-15 0)
(0.929377 3.00028e-15 0)
(0.927412 4.15547e-15 0)
(0.92639 -8.7296e-15 0)
(0.930827 4.58191e-15 0)
(0.930339 -3.771e-15 0)
(0.928046 1.54503e-15 0)
(0.926145 7.22858e-16 0)
(0.925319 9.81251e-16 0)
(0.925129 3.61452e-15 0)
(0.925908 5.5664e-15 0)
(0.925588 4.49315e-15 0)
(0.921771 2.41178e-15 0)
(0.894379 1.34111e-15 0)
(0.74829 -6.53348e-16 0)
(0.329226 2.12253e-15 0)
(0.0247115 -6.61342e-16 0)
(0.000157504 2.22663e-15 0)
(6.29128e-08 1.51462e-15 0)
(1.90439e-12 1.0842e-16 0)
(-2.62928e-17 -1.07336e-16 0)
(-1.97639e-16 5.96309e-17 0)
(-9.67587e-17 1.79977e-16 0)
(-1.975e-16 7.80623e-17 0)
(-2.99812e-16 1.82145e-16 0)
(-1.60398e-16 1.86482e-16 0)
(-1.12488e-16 3.91396e-16 0)
(-1.51154e-16 5.28005e-16 0)
(-5.92435e-17 3.8489e-16 0)
(1.15342e-16 2.46113e-16 0)
(8.10203e-18 1.37693e-16 0)
(-2.09569e-16 3.40438e-16 0)
(-4.17158e-16 5.45352e-16 0)
(-4.35675e-16 4.56447e-16 0)
(-5.17163e-16 5.58362e-16 0)
(-2.1684e-18 -2.1684e-18 0)
(2.72369e-16 -2.1684e-18 0)
(5.8151e-16 -2.1684e-18 0)
(1.76382e-16 3.90311e-17 0)
(-3.06442e-16 2.86228e-16 0)
(-6.9211e-16 2.10334e-16 0)
(-3.71105e-16 -2.1684e-18 0)
(-2.14368e-17 -2.1684e-18 0)
(-9.10456e-18 0 0)
(1.5326e-16 0 0)
(4.05789e-16 -4.33679e-18 0)
(2.29032e-16 -5.63783e-17 0)
(7.91621e-17 2.86228e-16 0)
(2.0909e-16 6.11488e-16 0)
(2.79154e-16 3.44775e-16 0)
(-5.1385e-17 0 0)
(-3.81807e-16 -2.1684e-18 0)
(-1.27465e-16 1.17093e-16 0)
(-9.03208e-17 3.55617e-16 0)
(-1.9994e-16 1.73472e-16 0)
(-3.16292e-18 1.95156e-17 0)
(1.58742e-16 2.38524e-16 0)
(2.24608e-16 4.68374e-16 0)
(2.0346e-13 2.81892e-16 0)
(1.36305e-09 3.78602e-15 0)
(9.25182e-07 1.01264e-14 0)
(8.82494e-05 -1.26665e-14 0)
(0.00174107 3.01526e-14 0)
(0.0109286 3.62209e-15 0)
(0.0329634 -3.05047e-14 0)
(0.065463 4.13234e-14 0)
(0.103626 -1.21176e-14 0)
(0.144555 9.35326e-15 0)
(0.186974 7.81403e-15 0)
(0.230319 5.87481e-15 0)
(0.274306 8.95638e-15 0)
(0.318772 -1.68936e-15 0)
(0.363621 2.96927e-14 0)
(0.408794 -6.83803e-15 0)
(0.454261 9.09858e-15 0)
(0.500011 3.14351e-14 0)
(0.546049 -1.67199e-16 0)
(0.592382 3.82662e-15 0)
(0.639015 1.79369e-14 0)
(0.685933 2.92159e-14 0)
(0.733071 1.79786e-14 0)
(0.780233 9.0717e-15 0)
(0.826957 1.73124e-14 0)
(0.8717 7.61167e-15 0)
(0.910352 1.50234e-14 0)
(0.933333 -1.21595e-14 0)
(0.935926 6.57912e-15 0)
(0.925117 1.18827e-14 0)
(0.926483 1.10735e-14 0)
(0.927524 1.04153e-14 0)
(0.927751 7.6128e-15 0)
(0.927923 2.21797e-15 0)
(0.928011 2.71316e-15 0)
(0.928288 6.8346e-16 0)
(0.928419 2.73074e-15 0)
(0.928235 6.26735e-15 0)
(0.928088 7.2515e-15 0)
(0.928114 9.6248e-15 0)
(0.928241 7.01182e-15 0)
(0.928503 4.14991e-15 0)
(0.928968 4.18912e-15 0)
(0.929377 3.54314e-15 0)
(0.927412 7.22105e-15 0)
(0.92639 -4.54265e-15 0)
(0.930827 5.95607e-15 0)
(0.930339 -1.58288e-15 0)
(0.928046 4.89053e-15 0)
(0.926145 2.35019e-15 0)
(0.925319 3.28421e-15 0)
(0.925129 5.31311e-15 0)
(0.925908 3.77231e-15 0)
(0.925588 4.2523e-15 0)
(0.921771 2.16793e-15 0)
(0.894379 4.36202e-16 0)
(0.74829 6.45078e-16 0)
(0.329226 5.8959e-15 0)
(0.0247115 1.71652e-15 0)
(0.000157504 2.00765e-15 0)
(6.29128e-08 1.45066e-15 0)
(1.90484e-12 3.15502e-16 0)
(2.03615e-17 1.26851e-16 0)
(-1.11691e-17 2.25513e-16 0)
(-1.78326e-16 2.46113e-16 0)
(-3.01577e-16 9.43252e-17 0)
(-1.96985e-16 1.9624e-16 0)
(-9.46077e-17 9.32411e-17 0)
(1.01279e-17 2.00577e-16 0)
(-1.67143e-16 3.79469e-16 0)
(-2.04807e-16 5.85467e-16 0)
(-9.57319e-17 5.32341e-16 0)
(-1.66337e-16 3.66459e-16 0)
(-1.00786e-16 2.30934e-16 0)
(-2.98519e-16 3.22007e-16 0)
(-5.70268e-16 2.23345e-16 0)
(-7.62191e-16 3.16586e-16 0)
(-2.1684e-18 2.1684e-18 0)
(2.52298e-16 2.1684e-18 0)
(5.73313e-16 2.1684e-18 0)
(1.48398e-16 1.66967e-16 0)
(-6.3472e-16 -1.66967e-16 0)
(-6.7195e-16 -5.44268e-16 0)
(-3.26405e-16 -2.40692e-16 0)
(3.2308e-18 2.1684e-18 0)
(-2.89259e-17 0 0)
(1.6604e-16 -2.1684e-18 0)
(4.22342e-16 8.23991e-17 0)
(2.4151e-16 2.66713e-16 0)
(2.69747e-16 1.01915e-16 0)
(1.80567e-16 2.51534e-16 0)
(2.91655e-16 6.93887e-17 0)
(-5.16659e-17 9.32411e-17 0)
(-3.98784e-16 2.1684e-18 0)
(-1.53892e-16 2.1684e-18 0)
(-7.70269e-17 -1.30104e-17 0)
(-2.58536e-16 0 0)
(5.6882e-17 3.03576e-17 0)
(2.56368e-16 3.16586e-16 0)
(2.75143e-16 1.34441e-16 0)
(2.03104e-13 -4.27174e-16 0)
(1.36305e-09 9.606e-16 0)
(9.25182e-07 1.28803e-14 0)
(8.82494e-05 -6.01992e-15 0)
(0.00174107 1.53944e-14 0)
(0.0109286 1.30264e-14 0)
(0.0329634 -3.6937e-14 0)
(0.065463 3.86994e-14 0)
(0.103626 -1.04225e-14 0)
(0.144555 5.50249e-15 0)
(0.186974 5.97416e-15 0)
(0.230319 -1.37943e-15 0)
(0.274306 1.04221e-14 0)
(0.318772 -5.2197e-15 0)
(0.363621 3.03688e-14 0)
(0.408794 -5.96932e-15 0)
(0.454261 6.10884e-15 0)
(0.500011 3.13777e-14 0)
(0.546049 -2.76319e-15 0)
(0.592382 2.52351e-15 0)
(0.639015 1.29182e-14 0)
(0.685933 2.69836e-14 0)
(0.733071 1.53487e-14 0)
(0.780233 5.43004e-15 0)
(0.826957 1.45978e-14 0)
(0.8717 5.68859e-15 0)
(0.910352 1.04956e-14 0)
(0.933333 -1.68905e-15 0)
(0.935926 5.25444e-15 0)
(0.925117 1.01291e-14 0)
(0.926483 4.87677e-15 0)
(0.927524 9.84303e-15 0)
(0.927751 7.85434e-15 0)
(0.927923 1.90348e-15 0)
(0.928011 3.19067e-15 0)
(0.928288 -2.81395e-15 0)
(0.928419 -4.32945e-16 0)
(0.928235 3.90108e-15 0)
(0.928088 5.36464e-15 0)
(0.928114 9.54383e-15 0)
(0.928241 2.93143e-15 0)
(0.928503 4.86724e-15 0)
(0.928968 2.85716e-15 0)
(0.929377 2.29278e-15 0)
(0.927412 9.71414e-15 0)
(0.92639 -1.79204e-15 0)
(0.930827 4.87984e-15 0)
(0.930339 -2.72772e-15 0)
(0.928046 7.25741e-15 0)
(0.926145 2.51586e-16 0)
(0.925319 4.89648e-15 0)
(0.925129 5.70719e-15 0)
(0.925908 -3.92874e-16 0)
(0.925588 3.34578e-15 0)
(0.921771 1.02467e-15 0)
(0.894379 -3.51269e-16 0)
(0.74829 1.47151e-15 0)
(0.329226 1.03461e-14 0)
(0.0247115 1.96067e-15 0)
(0.000157504 2.41742e-15 0)
(6.29128e-08 1.62955e-15 0)
(1.90388e-12 7.52434e-16 0)
(1.44605e-16 4.1308e-16 0)
(-8.90388e-17 3.95732e-16 0)
(-3.71072e-16 2.51534e-16 0)
(-4.84507e-16 2.46113e-16 0)
(-3.717e-16 2.1684e-17 0)
(-3.16283e-17 -1.36609e-16 0)
(2.08349e-16 -1.18178e-16 0)
(1.08407e-16 4.22837e-17 0)
(4.32808e-17 4.20669e-16 0)
(3.06449e-17 6.75456e-16 0)
(-1.89139e-16 5.8113e-16 0)
(-3.25857e-16 1.86482e-16 0)
(-5.11446e-16 -1.32272e-16 0)
(-7.29344e-16 -8.34833e-17 0)
(-9.09642e-16 -1.94071e-16 0)
(0 0 0)
(1.79016e-16 0 0)
(2.63573e-16 -1.56125e-16 0)
(-1.49841e-16 -4.09827e-16 0)
(-7.21799e-16 -5.83299e-16 0)
(-3.93794e-16 -2.53702e-16 0)
(-7.79579e-17 -2.1684e-17 0)
(5.83396e-17 0 0)
(-4.51427e-17 0 0)
(1.75219e-16 5.63783e-17 0)
(4.48711e-16 3.31765e-16 0)
(2.44168e-16 5.03068e-16 0)
(-2.61352e-17 2.23345e-16 0)
(8.39526e-17 -1.04083e-16 0)
(3.06632e-16 -6.50519e-17 0)
(-4.93646e-17 -9.54094e-17 0)
(-4.02344e-16 0 0)
(-2.08623e-16 -9.97462e-17 0)
(-3.96179e-17 -3.81638e-16 0)
(-1.77955e-17 -1.36609e-16 0)
(2.49563e-16 0 0)
(2.41848e-17 5.85467e-17 0)
(-2.10614e-16 -1.8865e-16 0)
(2.02417e-13 -3.46943e-16 0)
(1.36306e-09 1.3314e-15 0)
(9.25182e-07 7.94067e-15 0)
(8.82494e-05 -1.39005e-15 0)
(0.00174107 1.85888e-15 0)
(0.0109286 1.56833e-14 0)
(0.0329634 -3.17233e-14 0)
(0.065463 2.97797e-14 0)
(0.103626 -9.39674e-15 0)
(0.144555 2.85801e-15 0)
(0.186974 4.2005e-15 0)
(0.230319 -5.64865e-15 0)
(0.274306 1.11398e-14 0)
(0.318772 -6.25392e-15 0)
(0.363621 2.66101e-14 0)
(0.408794 -5.78782e-15 0)
(0.454261 2.60652e-15 0)
(0.500011 2.69896e-14 0)
(0.546049 -2.77199e-15 0)
(0.592382 1.72676e-15 0)
(0.639015 8.20882e-15 0)
(0.685933 2.25802e-14 0)
(0.733071 1.3262e-14 0)
(0.780233 5.34975e-15 0)
(0.826957 1.31668e-14 0)
(0.8717 8.46489e-15 0)
(0.910352 8.80428e-15 0)
(0.933333 3.99602e-15 0)
(0.935926 6.08421e-15 0)
(0.925117 6.43059e-15 0)
(0.926483 5.67194e-15 0)
(0.927524 1.07914e-14 0)
(0.927751 6.73342e-15 0)
(0.927923 -2.80185e-16 0)
(0.928011 2.06855e-15 0)
(0.928288 -5.5659e-15 0)
(0.928419 -2.33536e-15 0)
(0.928235 6.76852e-16 0)
(0.928088 4.03684e-15 0)
(0.928114 6.92487e-15 0)
(0.928241 4.01761e-16 0)
(0.928503 5.07167e-15 0)
(0.928968 2.68077e-15 0)
(0.929377 1.67539e-15 0)
(0.927412 7.50871e-15 0)
(0.92639 -2.22661e-15 0)
(0.930827 5.3275e-15 0)
(0.930339 -8.52476e-16 0)
(0.928046 6.10815e-15 0)
(0.926145 -2.1125e-15 0)
(0.925319 1.59788e-15 0)
(0.925129 3.12847e-15 0)
(0.925908 1.87718e-16 0)
(0.925588 1.69774e-15 0)
(0.921771 7.76719e-16 0)
(0.894379 -1.80405e-15 0)
(0.74829 -1.71312e-16 0)
(0.329226 8.60055e-15 0)
(0.0247115 -6.10388e-16 0)
(0.000157504 3.17625e-15 0)
(6.29128e-08 1.82904e-15 0)
(1.90422e-12 -7.26413e-17 0)
(1.37754e-16 4.99815e-16 0)
(-5.5653e-17 2.00577e-16 0)
(-4.27334e-16 6.50519e-17 0)
(-6.73625e-16 8.89043e-17 0)
(-5.08454e-16 -8.78201e-17 0)
(-1.76942e-16 4.33679e-18 0)
(7.31875e-17 -2.56955e-16 0)
(3.43784e-16 -1.94071e-16 0)
(3.53451e-16 1.14925e-16 0)
(1.23206e-16 4.18501e-16 0)
(-2.83105e-16 3.55617e-16 0)
(-5.59847e-16 -4.11995e-17 0)
(-6.84217e-16 -3.07912e-16 0)
(-5.82592e-16 -2.43945e-16 0)
(-6.85213e-16 -3.46943e-16 0)
(1.0842e-17 0 0)
(2.06818e-16 -1.25767e-16 0)
(-5.21764e-17 -4.70542e-16 0)
(-2.07359e-16 -8.43506e-16 0)
(-3.89161e-16 -6.57024e-16 0)
(-5.30155e-17 -3.27428e-16 0)
(1.8288e-16 0 0)
(1.38387e-16 4.33679e-18 0)
(-4.41564e-17 0 0)
(1.8635e-16 0 0)
(4.21513e-16 8.67359e-17 0)
(2.5905e-17 2.38524e-16 0)
(-2.88428e-16 0 0)
(-3.32934e-17 -5.20415e-17 0)
(2.20839e-16 0 0)
(2.66281e-18 -9.32411e-17 0)
(-2.62593e-16 0 0)
(-2.48794e-16 0 0)
(-5.85742e-17 -1.19262e-16 0)
(2.00868e-17 0 0)
(2.22937e-16 0 0)
(-3.28936e-17 -9.32411e-17 0)
(-3.26426e-16 -4.55363e-17 0)
(2.02573e-13 -4.98731e-17 0)
(1.36306e-09 8.67359e-17 0)
(9.25182e-07 2.35488e-15 0)
(8.82494e-05 -2.50468e-15 0)
(0.00174107 1.56355e-16 0)
(0.0109286 9.00816e-15 0)
(0.0329634 -1.49976e-14 0)
(0.065463 1.90282e-14 0)
(0.103626 -3.38297e-15 0)
(0.144555 2.59417e-15 0)
(0.186974 4.26289e-15 0)
(0.230319 -7.48965e-15 0)
(0.274306 1.03423e-14 0)
(0.318772 -4.18692e-15 0)
(0.363621 2.07829e-14 0)
(0.408794 -4.59333e-15 0)
(0.454261 2.09072e-15 0)
(0.500011 2.09134e-14 0)
(0.546049 -2.60479e-16 0)
(0.592382 2.48951e-15 0)
(0.639015 6.33139e-15 0)
(0.685933 1.8702e-14 0)
(0.733071 1.1357e-14 0)
(0.780233 7.76506e-15 0)
(0.826957 1.01356e-14 0)
(0.8717 1.308e-14 0)
(0.910352 3.15269e-15 0)
(0.933333 1.09438e-14 0)
(0.935926 1.11866e-14 0)
(0.925117 7.32373e-15 0)
(0.926483 7.09071e-15 0)
(0.927524 1.11551e-14 0)
(0.927751 4.96037e-15 0)
(0.927923 1.29355e-15 0)
(0.928011 7.59622e-16 0)
(0.928288 -3.15377e-15 0)
(0.928419 -9.47068e-16 0)
(0.928235 -3.84902e-16 0)
(0.928088 2.59665e-15 0)
(0.928114 3.68896e-15 0)
(0.928241 1.10993e-15 0)
(0.928503 2.67855e-15 0)
(0.928968 1.8286e-15 0)
(0.929377 2.62508e-15 0)
(0.927412 3.23789e-15 0)
(0.92639 1.12386e-15 0)
(0.930827 2.64459e-15 0)
(0.930339 1.30282e-15 0)
(0.928046 3.47605e-15 0)
(0.926145 -3.63744e-16 0)
(0.925319 3.63598e-16 0)
(0.925129 9.56679e-16 0)
(0.925908 2.78499e-16 0)
(0.925588 7.87634e-16 0)
(0.921771 6.74046e-16 0)
(0.894379 -3.282e-16 0)
(0.74829 9.8652e-17 0)
(0.329226 3.27347e-15 0)
(0.0247115 5.30772e-18 0)
(0.000157504 5.42022e-16 0)
(6.29128e-08 4.44521e-17 0)
(1.90525e-12 -1.49619e-16 0)
(1.84729e-16 2.88397e-16 0)
(-4.28893e-17 1.84314e-17 0)
(-4.42988e-16 0 0)
(-7.02976e-16 0 0)
(-5.16806e-16 0 0)
(-3.17328e-16 -1.6263e-17 0)
(5.30182e-17 -9.97462e-17 0)
(4.00539e-16 -9.8662e-17 0)
(4.60783e-16 0 0)
(1.75915e-16 0 0)
(-3.20225e-16 5.52941e-17 0)
(-6.03869e-16 5.85467e-17 0)
(-6.03391e-16 -8.45675e-17 0)
(-5.02065e-16 -3.57785e-17 0)
(-4.74879e-16 -1.35525e-16 0)
(3.18754e-16 1.99492e-16 0)
(3.0902e-16 0 0)
(-6.53863e-17 -1.95156e-16 0)
(-1.17201e-16 -5.18247e-16 0)
(-4.40356e-17 -2.90565e-16 0)
(9.41943e-17 0 0)
(3.99788e-16 1.7564e-16 0)
(1.83503e-16 3.83806e-16 0)
(-2.26533e-17 2.47197e-16 0)
(2.40129e-16 6.50519e-17 0)
(4.36001e-16 0 0)
(6.92028e-17 0 0)
(-3.02006e-16 0 0)
(-9.53987e-18 -7.37255e-17 0)
(2.30423e-16 0 0)
(-1.38582e-17 9.32411e-17 0)
(-3.15021e-16 9.10727e-17 0)
(-3.81851e-16 0 0)
(-1.03574e-16 0 0)
(5.08088e-17 0 0)
(2.23802e-16 0 0)
(-5.60678e-17 9.32411e-17 0)
(-3.6693e-16 0 0)
(2.02409e-13 -3.25259e-17 0)
(1.36306e-09 -8.97716e-16 0)
(9.25182e-07 -3.46944e-16 0)
(8.82494e-05 -9.68695e-15 0)
(0.00174107 6.85355e-15 0)
(0.0109286 -3.00272e-15 0)
(0.0329634 -2.25225e-16 0)
(0.065463 1.0042e-14 0)
(0.103626 -3.37586e-15 0)
(0.144555 7.13213e-15 0)
(0.186974 4.44624e-15 0)
(0.230319 -8.49215e-15 0)
(0.274306 1.09432e-14 0)
(0.318772 -1.24592e-15 0)
(0.363621 1.41591e-14 0)
(0.408794 -2.93502e-15 0)
(0.454261 3.74162e-15 0)
(0.500011 1.48305e-14 0)
(0.546049 2.28095e-15 0)
(0.592382 3.92587e-15 0)
(0.639015 4.30127e-15 0)
(0.685933 1.44443e-14 0)
(0.733071 6.67196e-15 0)
(0.780233 8.40628e-15 0)
(0.826957 6.95583e-15 0)
(0.8717 1.673e-14 0)
(0.910352 6.7254e-16 0)
(0.933333 1.57026e-14 0)
(0.935926 1.18079e-14 0)
(0.925117 7.87326e-15 0)
(0.926483 7.88715e-15 0)
(0.927524 8.35831e-15 0)
(0.927751 1.06943e-15 0)
(0.927923 2.6697e-15 0)
(0.928011 3.91407e-16 0)
(0.928288 -1.74966e-15 0)
(0.928419 -6.7202e-16 0)
(0.928235 -1.46518e-15 0)
(0.928088 1.74001e-15 0)
(0.928114 1.96889e-15 0)
(0.928241 1.4479e-15 0)
(0.928503 -7.03289e-16 0)
(0.928968 2.03439e-16 0)
(0.929377 1.91108e-15 0)
(0.927412 2.6393e-15 0)
(0.92639 3.16458e-15 0)
(0.930827 4.80369e-17 0)
(0.930339 -1.15407e-15 0)
(0.928046 -4.07073e-16 0)
(0.926145 -3.92041e-16 0)
(0.925319 -1.14582e-15 0)
(0.925129 -1.25879e-15 0)
(0.925908 -3.56971e-16 0)
(0.925588 -4.97588e-16 0)
(0.921771 3.28552e-17 0)
(0.894379 8.32559e-16 0)
(0.74829 4.58407e-16 0)
(0.329226 -1.6085e-15 0)
(0.0247115 -2.89802e-16 0)
(0.000157504 -1.17294e-15 0)
(6.29128e-08 -1.68051e-16 0)
(1.90495e-12 3.40438e-16 0)
(1.56462e-16 4.66205e-17 0)
(-1.3503e-17 0 0)
(-3.60401e-16 0 0)
(-6.24154e-16 7.69781e-17 0)
(-6.06891e-16 2.04913e-16 0)
(-3.91261e-16 -6.50519e-18 0)
(7.01909e-17 -1.0842e-18 0)
(4.64767e-16 0 0)
(5.63999e-16 -1.69135e-16 0)
(3.60405e-16 -3.07912e-16 0)
(-3.39545e-17 -7.15571e-17 0)
(-5.19896e-16 2.27682e-16 0)
(-7.84279e-16 1.78893e-16 0)
(-6.7473e-16 2.87313e-16 0)
(-5.8872e-16 2.17924e-16 0)
(6.93887e-16 4.83552e-16 0)
(4.37753e-16 1.84314e-16 0)
(-8.60584e-17 1.36609e-16 0)
(-2.91318e-16 -1.97324e-16 0)
(-1.01868e-16 2.1684e-18 0)
(2.99745e-16 6.50519e-17 0)
(4.58527e-16 4.83552e-16 0)
(1.8834e-16 7.52434e-16 0)
(2.48159e-18 5.6812e-16 0)
(2.65265e-16 2.9707e-16 0)
(3.67353e-16 1.47451e-16 0)
(7.84066e-17 -1.47451e-16 0)
(-2.27744e-16 -7.80623e-17 0)
(-6.45938e-18 -2.60208e-16 0)
(2.3543e-16 -4.98731e-17 0)
(-5.01991e-17 4.11995e-17 0)
(-3.48946e-16 3.40438e-16 0)
(-4.83107e-16 1.58293e-16 0)
(-1.81584e-16 0 0)
(6.72502e-17 0 0)
(2.22165e-16 0 0)
(-5.55738e-17 -3.03576e-17 0)
(-3.52962e-16 0 0)
(2.02627e-13 3.88143e-16 0)
(1.36305e-09 -2.8883e-15 0)
(9.25182e-07 -2.97721e-15 0)
(8.82494e-05 -1.08948e-14 0)
(0.00174107 1.27798e-14 0)
(0.0109286 -9.53123e-15 0)
(0.0329634 8.65111e-15 0)
(0.065463 9.62126e-15 0)
(0.103626 -7.97177e-15 0)
(0.144555 1.28175e-14 0)
(0.186974 4.27944e-15 0)
(0.230319 -7.62588e-15 0)
(0.274306 1.13873e-14 0)
(0.318772 1.62928e-15 0)
(0.363621 7.66627e-15 0)
(0.408794 -2.24004e-15 0)
(0.454261 6.35138e-15 0)
(0.500011 8.76944e-15 0)
(0.546049 3.94591e-15 0)
(0.592382 5.51845e-15 0)
(0.639015 3.03173e-15 0)
(0.685933 9.11503e-15 0)
(0.733071 1.08222e-15 0)
(0.780233 8.17311e-15 0)
(0.826957 4.99411e-15 0)
(0.8717 1.73931e-14 0)
(0.910352 5.66284e-16 0)
(0.933333 1.76606e-14 0)
(0.935926 1.03049e-14 0)
(0.925117 5.77446e-15 0)
(0.926483 6.6323e-15 0)
(0.927524 4.68975e-15 0)
(0.927751 -2.7678e-15 0)
(0.927923 4.02107e-15 0)
(0.928011 4.67655e-16 0)
(0.928288 -5.78557e-16 0)
(0.928419 9.08867e-16 0)
(0.928235 -2.36084e-15 0)
(0.928088 1.07595e-15 0)
(0.928114 -8.4676e-16 0)
(0.928241 1.66948e-16 0)
(0.928503 -2.10951e-15 0)
(0.928968 -7.72598e-16 0)
(0.929377 2.72516e-16 0)
(0.927412 4.22003e-16 0)
(0.92639 5.3093e-15 0)
(0.930827 -2.38856e-15 0)
(0.930339 -3.84845e-15 0)
(0.928046 -3.11575e-15 0)
(0.926145 7.58358e-16 0)
(0.925319 -5.18397e-16 0)
(0.925129 -1.92877e-15 0)
(0.925908 6.00081e-16 0)
(0.925588 -1.84635e-15 0)
(0.921771 -8.85552e-16 0)
(0.894379 1.14293e-15 0)
(0.74829 -1.44729e-16 0)
(0.329226 -6.70223e-15 0)
(0.0247115 2.70694e-16 0)
(0.000157504 -4.61911e-15 0)
(6.29128e-08 -5.84383e-16 0)
(1.9046e-12 -4.81384e-16 0)
(1.98218e-16 0 0)
(4.53356e-17 0 0)
(-1.34859e-16 -6.72203e-17 0)
(-4.19533e-16 1.8865e-16 0)
(-6.44798e-16 4.1308e-16 0)
(-4.03981e-16 2.03829e-16 0)
(3.56175e-17 5.20415e-17 0)
(4.27232e-16 9.10727e-17 0)
(5.83546e-16 -3.63206e-16 0)
(3.98946e-16 -5.4752e-16 0)
(1.28027e-16 -2.77555e-16 0)
(-3.95533e-16 7.58939e-17 0)
(-7.50259e-16 3.80554e-16 0)
(-7.16407e-16 5.33426e-16 0)
(-8.19654e-16 4.51026e-16 0)
(9.21569e-16 2.45029e-16 0)
(5.10606e-16 1.04083e-16 0)
(-8.43916e-17 1.34441e-16 0)
(-3.25384e-16 2.4286e-16 0)
(1.2893e-17 1.01915e-16 0)
(4.09372e-16 2.66713e-16 0)
(6.4377e-16 2.99239e-16 0)
(2.69833e-16 4.18501e-16 0)
(-1.82439e-16 3.85975e-16 0)
(2.93562e-16 2.58039e-16 0)
(-2.56318e-18 -3.68627e-17 0)
(-1.49044e-16 -2.58039e-16 0)
(-2.11888e-16 -1.73472e-17 0)
(-2.36254e-17 1.06251e-16 0)
(2.52683e-16 2.60208e-17 0)
(1.43767e-16 -1.51788e-16 0)
(-1.8889e-16 1.25767e-16 0)
(-5.55822e-16 2.34187e-16 0)
(-2.45012e-16 8.89043e-17 0)
(7.42245e-17 1.92987e-16 0)
(-1.52002e-16 2.60208e-17 0)
(-9.79078e-17 -2.4286e-16 0)
(1.52088e-16 5.20415e-17 0)
(2.03353e-13 6.44014e-16 0)
(1.36305e-09 -1.41813e-15 0)
(9.25182e-07 -5.67036e-15 0)
(8.82494e-05 -6.67265e-15 0)
(0.00174107 4.18032e-15 0)
(0.0109286 -8.97095e-15 0)
(0.0329634 6.05655e-15 0)
(0.065463 1.10324e-14 0)
(0.103626 -1.19316e-14 0)
(0.144555 1.67198e-14 0)
(0.186974 2.54271e-15 0)
(0.230319 -5.99648e-15 0)
(0.274306 1.1533e-14 0)
(0.318772 3.73919e-15 0)
(0.363621 2.49586e-15 0)
(0.408794 -2.4867e-15 0)
(0.454261 9.56749e-15 0)
(0.500011 1.73702e-15 0)
(0.546049 4.6147e-15 0)
(0.592382 7.19467e-15 0)
(0.639015 2.52564e-15 0)
(0.685933 5.25191e-15 0)
(0.733071 -1.66011e-16 0)
(0.780233 5.7919e-15 0)
(0.826957 4.02706e-15 0)
(0.8717 1.55856e-14 0)
(0.910352 -4.40276e-15 0)
(0.933333 1.80374e-14 0)
(0.935926 1.16325e-14 0)
(0.925117 6.87605e-15 0)
(0.926483 3.65305e-15 0)
(0.927524 3.08898e-15 0)
(0.927751 -2.67786e-15 0)
(0.927923 3.60651e-15 0)
(0.928011 -1.52814e-15 0)
(0.928288 -2.97543e-16 0)
(0.928419 1.40198e-15 0)
(0.928235 -3.18782e-16 0)
(0.928088 1.63921e-16 0)
(0.928114 -2.34457e-15 0)
(0.928241 -8.60869e-16 0)
(0.928503 -2.78256e-15 0)
(0.928968 -2.53495e-15 0)
(0.929377 -2.59952e-18 0)
(0.927412 -2.92934e-15 0)
(0.92639 3.29822e-15 0)
(0.930827 -1.08134e-15 0)
(0.930339 -5.40312e-15 0)
(0.928046 -4.669e-15 0)
(0.926145 -9.26082e-17 0)
(0.925319 2.84398e-16 0)
(0.925129 -1.5126e-15 0)
(0.925908 1.24735e-15 0)
(0.925588 -1.22424e-15 0)
(0.921771 -1.05239e-16 0)
(0.894379 -3.11948e-16 0)
(0.74829 -4.91488e-16 0)
(0.329226 -4.89194e-15 0)
(0.0247115 1.61142e-15 0)
(0.000157504 -2.42284e-15 0)
(6.29128e-08 -1.8865e-15 0)
(1.90591e-12 -3.43691e-16 0)
(2.00017e-16 -6.50519e-18 0)
(2.92896e-17 -9.43252e-17 0)
(2.23201e-17 -2.39608e-16 0)
(-1.9253e-16 -8.67359e-18 0)
(-4.14845e-16 2.59123e-16 0)
(-2.98699e-16 3.90311e-16 0)
(-9.16357e-17 1.86482e-16 0)
(2.1072e-16 8.34833e-17 0)
(3.207e-16 -1.51788e-16 0)
(5.17252e-16 -3.24175e-16 0)
(2.54928e-16 -1.77809e-16 0)
(-2.37193e-16 -1.06251e-16 0)
(-5.80453e-16 2.08166e-16 0)
(-7.87453e-16 3.32849e-16 0)
(-9.8662e-16 3.10081e-16 0)
(7.09066e-16 -2.1684e-18 0)
(3.83306e-16 2.55871e-16 0)
(-1.53751e-17 3.10081e-16 0)
(-1.76002e-17 5.44268e-16 0)
(1.88331e-16 3.68627e-16 0)
(4.00902e-16 5.65951e-16 0)
(4.32749e-16 3.55617e-16 0)
(1.71699e-16 9.75778e-17 0)
(5.1149e-17 1.97324e-16 0)
(-7.74911e-17 -1.10588e-16 0)
(-3.27312e-16 -3.68627e-16 0)
(-6.87176e-17 -1.14925e-16 0)
(-2.18037e-16 2.19008e-16 0)
(1.59362e-17 4.79216e-16 0)
(2.35711e-16 2.62376e-16 0)
(8.76255e-17 3.03576e-17 0)
(-9.48443e-17 1.36609e-16 0)
(-3.73482e-16 4.14164e-16 0)
(-1.12572e-16 2.9707e-16 0)
(9.53673e-17 4.61868e-16 0)
(-1.45656e-16 2.23345e-16 0)
(-1.26704e-16 6.28835e-17 0)
(8.50716e-17 2.32018e-16 0)
(2.03904e-13 8.32664e-16 0)
(1.36305e-09 1.47234e-15 0)
(9.25182e-07 -1.7976e-15 0)
(8.82494e-05 -6.12618e-15 0)
(0.00174107 5.21617e-15 0)
(0.0109286 -2.65474e-15 0)
(0.0329634 1.44612e-15 0)
(0.065463 9.03663e-15 0)
(0.103626 -1.47685e-14 0)
(0.144555 1.65136e-14 0)
(0.186974 1.85005e-15 0)
(0.230319 -3.4294e-15 0)
(0.274306 8.57277e-15 0)
(0.318772 4.54167e-15 0)
(0.363621 2.69541e-16 0)
(0.408794 -2.71008e-15 0)
(0.454261 1.24473e-14 0)
(0.500011 -4.72538e-15 0)
(0.546049 5.03182e-15 0)
(0.592382 8.13937e-15 0)
(0.639015 -9.3151e-17 0)
(0.685933 2.06261e-15 0)
(0.733071 -1.43106e-15 0)
(0.780233 2.05565e-15 0)
(0.826957 1.34696e-15 0)
(0.8717 1.37732e-14 0)
(0.910352 -7.26293e-15 0)
(0.933333 1.91744e-14 0)
(0.935926 8.92922e-15 0)
(0.925117 4.50789e-15 0)
(0.926483 2.03953e-16 0)
(0.927524 1.72698e-15 0)
(0.927751 -2.55169e-15 0)
(0.927923 -1.26051e-15 0)
(0.928011 -2.25091e-15 0)
(0.928288 8.97081e-16 0)
(0.928419 3.18024e-16 0)
(0.928235 1.8322e-15 0)
(0.928088 -8.17996e-17 0)
(0.928114 -5.91716e-16 0)
(0.928241 -9.39593e-16 0)
(0.928503 -3.91776e-15 0)
(0.928968 -3.43338e-15 0)
(0.929377 6.81074e-16 0)
(0.927412 -2.98488e-15 0)
(0.92639 -2.34467e-15 0)
(0.930827 2.82907e-15 0)
(0.930339 -1.95321e-15 0)
(0.928046 -7.59664e-16 0)
(0.926145 -1.13085e-15 0)
(0.925319 -2.63827e-16 0)
(0.925129 3.61709e-16 0)
(0.925908 1.39147e-15 0)
(0.925588 1.81612e-15 0)
(0.921771 7.50537e-16 0)
(0.894379 -1.10361e-15 0)
(0.74829 7.32506e-17 0)
(0.329226 1.94482e-15 0)
(0.0247115 -7.3565e-16 0)
(0.000157504 3.12747e-15 0)
(6.29128e-08 -1.6263e-16 0)
(1.90516e-12 1.56125e-16 0)
(1.07135e-16 -5.09573e-17 0)
(-7.63449e-17 -2.08166e-16 0)
(4.79905e-17 -8.34833e-17 0)
(1.98528e-17 0 0)
(-1.334e-16 -1.95156e-17 0)
(-2.60943e-16 1.89735e-16 0)
(-1.28547e-16 8.56517e-17 0)
(6.5553e-17 2.48281e-16 0)
(2.11114e-16 2.87313e-16 0)
(3.41083e-16 1.11672e-16 0)
(9.07652e-17 -1.50704e-16 0)
(-2.95948e-16 -2.75386e-16 0)
(-5.65909e-16 -2.1684e-18 0)
(-7.11272e-16 8.56517e-17 0)
(-8.988e-16 1.32272e-16 0)
(9.08558e-16 -2.21176e-16 0)
(5.03442e-16 -9.97462e-17 0)
(5.31426e-18 -3.90311e-17 0)
(-7.18164e-17 2.47197e-16 0)
(2.77072e-16 1.8865e-16 0)
(6.23226e-16 2.8406e-16 0)
(2.8683e-16 -4.98731e-17 0)
(7.04925e-17 -3.96817e-16 0)
(-1.98272e-16 -2.53702e-16 0)
(-4.34432e-16 -4.83552e-16 0)
(-9.95656e-17 -1.43114e-16 0)
(1.86332e-16 1.45283e-16 0)
(-3.71681e-17 3.25259e-17 0)
(-2.12546e-16 2.49366e-16 0)
(-3.99981e-17 -4.33679e-18 0)
(2.69292e-16 -8.02307e-17 0)
(1.52585e-16 -1.6263e-16 0)
(-5.0669e-17 2.81892e-17 0)
(1.18589e-17 4.33679e-18 0)
(8.83085e-17 3.68627e-17 0)
(-9.5706e-17 -1.40946e-16 0)
(-2.10411e-16 4.33679e-18 0)
(3.60502e-17 8.89043e-17 0)
(2.04326e-13 -1.06251e-16 0)
(1.36305e-09 2.27031e-15 0)
(9.25182e-07 1.70219e-15 0)
(8.82494e-05 -2.70419e-15 0)
(0.00174107 1.72425e-15 0)
(0.0109286 2.14918e-15 0)