/*--------------------------------*- C++ -*----------------------------------*\
| =========                 |                                                 |
| \\      /  F ield         | OpenFOAM: The Open Source CFD Toolbox           |
|  \\    /   O peration     | Version:  4.1                                   |
|   \\  /    A nd           | Web:      www.OpenFOAM.org                      |
|    \\/     M anipulation  |                                                 |
\*---------------------------------------------------------------------------*/
FoamFile
{
    version     2.0;
    format      ascii;
    class       volVectorField;
    location    "0.16";
    object      U;
}
// * * * * * * * * * * * * * * * * * * * * * * * * * * * * * * * * * * * * * //

dimensions      [0 1 -1 0 0 0 0];

internalField   nonuniform List<vector> 
10000
(
(0 0 0)
(7.68734e-17 0 0)
(2.25904e-16 0 0)
(5.24002e-17 1.2143e-16 0)
(-9.8322e-17 0 0)
(-1.06603e-16 0 0)
(-1.47017e-16 0 0)
(-1.56731e-17 0 0)
(-9.7298e-30 0 0)
(1.10314e-16 1.19262e-16 0)
(3.20912e-16 0 0)
(1.6815e-17 -1.49619e-16 0)
(-3.0025e-16 0 0)
(-9.75616e-18 0 0)
(1.69273e-16 0 0)
(-1.51623e-17 1.25767e-16 0)
(-2.00194e-16 0 0)
(-4.6351e-17 0 0)
(-1.99138e-18 0 0)
(-3.88343e-17 0 0)
(5.9666e-20 0 0)
(2.04362e-17 9.54094e-17 0)
(6.65182e-18 0 0)
(8.45113e-17 0 0)
(-2.30967e-17 0 0)
(-1.5731e-16 0 0)
(-3.06148e-16 -1.17093e-16 0)
(-2.31224e-17 8.67359e-17 0)
(2.84464e-16 0 0)
(3.63075e-17 1.36609e-16 0)
(-1.74077e-16 0 0)
(-7.26809e-20 -1.10588e-16 0)
(1.02088e-16 -2.1684e-18 0)
(-8.62398e-18 0 0)
(2.42105e-13 1.8865e-16 0)
(2.0736e-09 2.82542e-15 0)
(1.67515e-06 4.27175e-16 0)
(0.000178094 -8.89177e-17 0)
(0.00369569 2.32746e-16 0)
(0.0234245 1.64529e-14 0)
(0.0700823 9.10374e-15 0)
(0.137737 1.87561e-14 0)
(0.216382 8.47117e-15 0)
(0.300428 9.196e-15 0)
(0.387554 5.77586e-15 0)
(0.476956 -7.54558e-15 0)
(0.568346 -8.67849e-15 0)
(0.662198 3.76545e-15 0)
(0.756742 1.37937e-14 0)
(0.848985 -2.04094e-15 0)
(0.919672 1.03243e-16 0)
(0.946882 3.27196e-15 0)
(0.92346 4.47683e-15 0)
(0.92531 6.07506e-15 0)
(0.926794 4.64842e-15 0)
(0.927407 4.28522e-15 0)
(0.929012 2.70734e-15 0)
(0.931458 2.85377e-15 0)
(0.925686 1.18792e-15 0)
(0.929788 1.88378e-15 0)
(0.94722 2.1816e-15 0)
(0.949126 7.28284e-16 0)
(0.924639 -9.82658e-16 0)
(0.780236 -2.98893e-16 0)
(0.351032 -7.71061e-15 0)
(0.0269506 -2.11079e-15 0)
(0.00017134 -1.51764e-16 0)
(6.69834e-08 1.44198e-16 0)
(1.99291e-12 0 0)
(4.42048e-16 0 0)
(-2.80132e-18 0 0)
(-1.60731e-16 0 0)
(3.67505e-18 1.60461e-16 0)
(-6.93096e-17 4.391e-16 0)
(-1.79552e-16 1.92987e-16 0)
(4.54977e-17 0 0)
(2.56004e-16 0 0)
(5.66906e-17 0 0)
(-1.32933e-16 9.54094e-17 0)
(5.62955e-17 0 0)
(2.56631e-16 0 0)
(5.27136e-17 0 0)
(-1.50758e-16 0 0)
(5.05318e-17 0 0)
(2.41978e-16 9.54094e-17 0)
(7.08882e-17 0 0)
(-1.36313e-16 0 0)
(-3.07453e-17 0 0)
(-2.69244e-17 0 0)
(-1.01768e-16 0 0)
(-1.79202e-16 -6.50519e-18 0)
(-3.33188e-16 0 0)
(-1.32729e-16 0 0)
(6.0814e-17 0 0)
(2.59786e-16 0 0)
(5.40236e-17 0 0)
(-1.45103e-16 8.45675e-17 0)
(-1.32221e-16 0 0)
(-4.75785e-17 0 0)
(0 0 0)
(0 0 0)
(1.23278e-16 0 0)
(2.56303e-16 1.2143e-16 0)
(6.25773e-17 3.05744e-16 0)
(-1.28698e-16 1.2143e-16 0)
(-2.30276e-16 2.47197e-16 0)
(-2.38193e-16 4.98731e-17 0)
(-3.25507e-17 0 0)
(-8.14688e-26 0 0)
(1.30598e-16 0 0)
(3.83726e-16 0 0)
(6.19321e-17 0 0)
(-2.66143e-16 0 0)
(1.2756e-17 0 0)
(1.64831e-16 1.27935e-16 0)
(-3.16569e-17 3.10081e-16 0)
(-2.2545e-16 1.27935e-16 0)
(-9.13009e-17 0 0)
(-1.23922e-17 0 0)
(-1.11827e-16 0 0)
(3.41778e-19 0 0)
(4.18465e-17 2.1684e-18 0)
(2.14885e-17 0 0)
(1.37494e-16 8.23991e-17 0)
(-7.07203e-17 2.45029e-16 0)
(-2.80022e-16 4.77047e-17 0)
(-2.46725e-16 6.72203e-17 0)
(-8.60017e-18 2.7105e-16 0)
(2.04771e-16 8.89043e-17 0)
(4.45104e-17 0 0)
(-1.82213e-16 0 0)
(-4.33061e-19 7.80623e-17 0)
(1.41835e-16 2.1684e-18 0)
(1.28429e-16 1.73472e-17 0)
(2.42529e-13 8.26159e-16 0)
(2.0736e-09 2.60208e-15 0)
(1.67515e-06 2.84928e-15 0)
(0.000178094 1.14075e-15 0)
(0.00369569 7.26516e-16 0)
(0.0234245 2.11169e-14 0)
(0.0700823 -2.54707e-14 0)
(0.137737 3.24064e-14 0)
(0.216382 5.96289e-15 0)
(0.300428 -4.31146e-15 0)
(0.387554 6.5007e-15 0)
(0.476956 -1.75133e-16 0)
(0.568346 -1.57922e-15 0)
(0.662198 -1.68979e-15 0)
(0.756742 6.05136e-15 0)
(0.848985 2.05742e-15 0)
(0.919672 5.21848e-15 0)
(0.946882 4.20477e-15 0)
(0.92346 2.73624e-15 0)
(0.92531 6.93664e-15 0)
(0.926794 4.78355e-15 0)
(0.927407 4.06647e-15 0)
(0.929012 2.69928e-15 0)
(0.931458 4.35327e-16 0)
(0.925686 -5.39752e-17 0)
(0.929788 2.29399e-15 0)
(0.94722 3.07565e-15 0)
(0.949126 2.61313e-15 0)
(0.924639 1.08387e-15 0)
(0.780236 1.37839e-15 0)
(0.351032 -1.2911e-15 0)
(0.0269506 -6.50614e-16 0)
(0.00017134 -1.51764e-17 0)
(6.69834e-08 1.18178e-16 0)
(1.99291e-12 3.90311e-17 0)
(4.15907e-16 1.26851e-16 0)
(4.64427e-17 1.51788e-17 0)
(-9.53579e-17 3.03576e-17 0)
(1.40455e-17 1.35525e-16 0)
(-7.92692e-17 2.43945e-16 0)
(-1.81196e-16 1.4203e-16 0)
(2.36579e-17 1.17093e-16 0)
(2.1075e-16 0 0)
(1.09391e-17 2.81892e-17 0)
(-1.6071e-16 1.98408e-16 0)
(1.29121e-17 2.81892e-17 0)
(2.13582e-16 0 0)
(3.73207e-17 0 0)
(-1.54942e-16 1.40946e-17 0)
(3.90689e-17 1.37693e-16 0)
(2.46909e-16 1.98408e-16 0)
(7.09419e-17 2.05998e-17 0)
(-1.60074e-16 0 0)
(-5.97298e-17 0 0)
(-5.9603e-17 0 0)
(-1.53502e-16 -6.50519e-18 0)
(-1.18122e-16 -6.72203e-17 0)
(-2.3204e-16 7.26413e-17 0)
(-1.1025e-16 1.9624e-16 0)
(7.20794e-17 3.36101e-17 0)
(2.77003e-16 0 0)
(6.26504e-17 1.95156e-17 0)
(-1.52697e-16 1.87566e-16 0)
(-2.1616e-16 1.71303e-16 0)
(-1.26989e-16 1.02999e-16 0)
(-6.17993e-17 1.98408e-16 0)
(0 0 0)
(1.88821e-16 0 0)
(4.86985e-16 0 0)
(8.48625e-17 8.23991e-17 0)
(-3.71586e-16 3.44775e-16 0)
(-3.24577e-16 5.72457e-16 0)
(-2.61401e-16 2.40692e-16 0)
(-4.18511e-17 0 0)
(-9.27597e-23 0 0)
(1.73689e-16 0 0)
(4.64943e-16 0 0)
(1.33099e-16 2.1684e-18 0)
(-1.44621e-16 1.30104e-17 0)
(7.28568e-17 2.23345e-16 0)
(3.03194e-16 7.15571e-17 0)
(-4.36536e-17 7.37255e-17 0)
(-3.9509e-16 0 0)
(-1.43209e-16 0 0)
(-4.43589e-17 1.01915e-16 0)
(-2.1938e-16 0 0)
(1.31052e-18 0 0)
(1.35488e-16 0 0)
(5.66176e-17 7.80623e-17 0)
(1.45566e-16 3.23091e-16 0)
(-9.72326e-17 5.61615e-16 0)
(-3.72e-16 2.88397e-16 0)
(-3.64037e-16 0 0)
(-2.23704e-17 4.98731e-17 0)
(2.9541e-16 0 0)
(7.70062e-17 0 0)
(-2.61236e-21 1.12757e-16 0)
(-1.51415e-18 3.75133e-16 0)
(9.3327e-21 1.86482e-16 0)
(7.86458e-18 1.79977e-16 0)
(2.43552e-13 8.19654e-16 0)
(2.07361e-09 3.57785e-16 0)
(1.67515e-06 8.83406e-15 0)
(0.000178094 3.31815e-15 0)
(0.00369569 3.69784e-16 0)
(0.0234245 2.04445e-14 0)
(0.0700823 -3.05986e-14 0)
(0.137737 2.85295e-14 0)
(0.216382 4.91853e-15 0)
(0.300428 -1.34779e-14 0)
(0.387554 7.37629e-15 0)
(0.476956 -1.23584e-15 0)
(0.568346 1.97492e-15 0)
(0.662198 -2.30836e-15 0)
(0.756742 5.19565e-15 0)
(0.848985 1.42418e-15 0)
(0.919672 2.00285e-15 0)
(0.946882 3.25056e-15 0)
(0.92346 1.8909e-15 0)
(0.92531 8.24924e-15 0)
(0.926794 3.67764e-15 0)
(0.927407 1.77723e-15 0)
(0.929012 1.37108e-15 0)
(0.931458 4.45965e-17 0)
(0.925686 1.72536e-16 0)
(0.929788 -2.62255e-16 0)
(0.94722 1.97253e-15 0)
(0.949126 2.71818e-15 0)
(0.924639 3.71376e-15 0)
(0.780236 5.21931e-15 0)
(0.351032 1.74438e-15 0)
(0.0269506 1.73992e-15 0)
(0.00017134 7.1004e-16 0)
(6.69834e-08 -4.97647e-16 0)
(1.99292e-12 -3.03576e-17 0)
(3.18668e-16 3.81638e-16 0)
(-2.67445e-17 1.73472e-16 0)
(-1.64998e-16 1.64798e-16 0)
(-2.84872e-17 1.79977e-16 0)
(2.90668e-17 6.28835e-17 0)
(-6.55874e-17 1.78893e-16 0)
(5.62626e-17 2.99239e-16 0)
(1.68582e-16 2.05998e-16 0)
(-4.51033e-18 9.75778e-17 0)
(-1.96317e-16 1.27935e-16 0)
(-7.24478e-17 1.98408e-16 0)
(1.17209e-16 1.66967e-16 0)
(1.2373e-16 1.06251e-16 0)
(1.93044e-17 2.32018e-16 0)
(1.24812e-16 3.3068e-16 0)
(1.61236e-16 1.33356e-16 0)
(-1.90774e-17 -8.13149e-17 0)
(-1.89183e-16 -3.79469e-17 0)
(-8.90867e-17 6.39677e-17 0)
(-8.8453e-17 -3.79469e-17 0)
(-1.88857e-16 6.50519e-17 0)
(-8.72548e-17 4.01153e-17 0)
(-7.28283e-17 2.30934e-16 0)
(-1.25313e-16 3.98985e-16 0)
(-7.89071e-18 2.75386e-16 0)
(1.90838e-16 1.07336e-16 0)
(1.12351e-16 -2.60208e-17 0)
(-9.53924e-17 1.6263e-16 0)
(-2.97422e-16 3.65375e-16 0)
(-1.95701e-16 2.75386e-16 0)
(-2.41776e-16 3.77301e-16 0)
(-2.1684e-18 -2.1684e-18 0)
(2.4268e-16 -2.1684e-18 0)
(5.60109e-16 -2.1684e-18 0)
(2.139e-16 3.90311e-17 0)
(-2.11377e-16 2.86228e-16 0)
(-5.52824e-16 1.53956e-16 0)
(-2.55278e-16 -2.1684e-18 0)
(-2.31533e-17 -2.1684e-18 0)
(-1.69354e-20 0 0)
(7.92757e-17 0 0)
(3.15402e-16 -4.33679e-18 0)
(1.37868e-16 -1.73472e-16 0)
(1.79123e-16 1.82145e-16 0)
(1.17464e-16 5.35594e-16 0)
(2.03471e-16 2.53702e-16 0)
(-2.97315e-17 0 0)
(-2.4562e-16 -2.1684e-18 0)
(-2.12822e-17 1.17093e-16 0)
(-6.96395e-17 3.49112e-16 0)
(-2.5122e-16 1.73472e-16 0)
(3.73735e-18 0 0)
(2.42869e-16 1.36609e-16 0)
(6.22694e-17 3.18754e-16 0)
(2.25654e-16 1.32272e-16 0)
(-1.30682e-16 1.60461e-16 0)
(-4.84845e-16 5.42099e-17 0)
(-4.46933e-16 -4.33679e-18 0)
(-3.48141e-17 0 0)
(3.4485e-16 -2.1684e-18 0)
(9.57728e-17 0 0)
(-8.76716e-21 0 0)
(-4.26832e-18 1.12757e-16 0)
(-4.5279e-20 4.33679e-18 0)
(-1.22199e-16 -4.81481e-34 0)
(2.4432e-13 6.13656e-16 0)
(2.0736e-09 4.83552e-16 0)
(1.67515e-06 5.76794e-15 0)
(0.000178094 1.50358e-14 0)
(0.00369569 -1.08869e-14 0)
(0.0234245 1.95752e-14 0)
(0.0700823 -2.6616e-14 0)
(0.137737 1.85901e-14 0)
(0.216382 8.23459e-15 0)
(0.300428 -1.91087e-14 0)
(0.387554 9.79444e-15 0)
(0.476956 -6.774e-17 0)
(0.568346 7.3385e-16 0)
(0.662198 -1.4129e-15 0)
(0.756742 1.67591e-15 0)
(0.848985 -3.0108e-15 0)
(0.919672 -6.55339e-16 0)
(0.946882 1.69825e-15 0)
(0.92346 4.53689e-15 0)
(0.92531 4.46874e-15 0)
(0.926794 2.68298e-15 0)
(0.927407 9.70944e-16 0)
(0.929012 9.77092e-16 0)
(0.931458 6.21896e-16 0)
(0.925686 -1.66539e-15 0)
(0.929788 -4.81955e-16 0)
(0.94722 4.2466e-16 0)
(0.949126 1.33788e-15 0)
(0.924639 3.61874e-15 0)
(0.780236 5.6691e-15 0)
(0.351032 1.63638e-18 0)
(0.0269506 8.29692e-16 0)
(0.00017134 1.77781e-15 0)
(6.69834e-08 1.71303e-16 0)
(1.99369e-12 4.597e-16 0)
(9.66985e-17 4.10911e-16 0)
(-1.50031e-16 2.37439e-16 0)
(-2.3867e-16 3.45859e-16 0)
(-6.37312e-17 3.19838e-16 0)
(4.25383e-17 1.79977e-16 0)
(9.89662e-17 2.81892e-16 0)
(2.97113e-17 3.19838e-16 0)
(9.21889e-17 4.07659e-16 0)
(-2.61386e-17 2.46113e-16 0)
(-2.0303e-16 2.36355e-16 0)
(-3.86736e-17 4.00069e-16 0)
(1.19572e-16 4.391e-16 0)
(2.6467e-16 2.94902e-16 0)
(2.16354e-16 4.33679e-16 0)
(-5.89128e-18 4.16332e-16 0)
(-1.33112e-16 1.7564e-16 0)
(-2.30509e-17 8.67359e-18 0)
(2.16162e-17 1.0083e-16 0)
(-1.01527e-16 1.4203e-16 0)
(-1.70648e-16 1.95156e-17 0)
(-8.48069e-17 1.20346e-16 0)
(4.24438e-18 1.84314e-17 0)
(3.47647e-17 8.99885e-17 0)
(-1.54328e-16 2.74302e-16 0)
(-1.64712e-16 4.7271e-16 0)
(-1.9668e-17 3.28512e-16 0)
(-6.6018e-17 1.57209e-16 0)
(2.38319e-17 4.66205e-17 0)
(-1.27809e-16 1.9624e-16 0)
(-2.74998e-16 1.95156e-16 0)
(-4.53195e-16 1.68051e-16 0)
(-2.1684e-18 2.1684e-18 0)
(3.05414e-16 2.1684e-18 0)
(6.51354e-16 2.1684e-18 0)
(2.48867e-16 1.66967e-16 0)
(-4.38111e-16 -1.43114e-16 0)
(-5.10992e-16 -5.44268e-16 0)
(-1.96613e-16 -2.40692e-16 0)
(-2.92391e-18 2.1684e-18 0)
(-6.85653e-19 0 0)
(1.10454e-16 -2.1684e-18 0)
(3.69733e-16 -5.20415e-17 0)
(1.90711e-16 1.25767e-16 0)
(3.72441e-16 4.33679e-18 0)
(1.90159e-16 1.86482e-16 0)
(2.32067e-16 6.50519e-18 0)
(-4.43771e-17 9.10727e-17 0)
(-3.33972e-16 2.1684e-18 0)
(-6.67461e-17 2.1684e-18 0)
(-8.9395e-17 -1.51788e-17 0)
(-2.89581e-16 0 0)
(3.92401e-17 0 0)
(3.09797e-16 2.60208e-16 0)
(5.09455e-17 3.46943e-17 0)
(-3.35331e-17 -8.45675e-17 0)
(-3.86406e-17 -3.5128e-16 0)
(-2.18493e-16 -1.58293e-16 0)
(-2.05269e-16 -1.14925e-16 0)
(4.20699e-17 0 0)
(9.77047e-17 2.1684e-18 0)
(8.42574e-22 0 0)
(-3.47132e-19 0 0)
(-2.48007e-17 0 0)
(1.18109e-18 0 0)
(1.13251e-16 2.1684e-18 0)
(2.44547e-13 -1.2143e-16 0)
(2.07361e-09 1.70002e-15 0)
(1.67515e-06 -1.82146e-15 0)
(0.000178094 2.99436e-14 0)
(0.00369569 -2.48669e-14 0)
(0.0234245 2.20039e-14 0)
(0.0700823 -1.55865e-14 0)
(0.137737 6.28945e-15 0)
(0.216382 1.4587e-14 0)
(0.300428 -2.19459e-14 0)
(0.387554 1.09944e-14 0)
(0.476956 3.63483e-17 0)
(0.568346 -2.9372e-15 0)
(0.662198 -8.66005e-16 0)
(0.756742 -6.39365e-16 0)
(0.848985 -2.70242e-15 0)
(0.919672 -1.59428e-15 0)
(0.946882 -1.67685e-15 0)
(0.92346 2.43847e-15 0)
(0.92531 -2.10356e-15 0)
(0.926794 8.20598e-16 0)
(0.927407 1.6568e-15 0)
(0.929012 -1.36338e-16 0)
(0.931458 2.2826e-15 0)
(0.925686 -3.71276e-15 0)
(0.929788 -9.34221e-16 0)
(0.94722 4.74916e-16 0)
(0.949126 7.32324e-16 0)
(0.924639 3.51805e-15 0)
(0.780236 1.7359e-15 0)
(0.351032 1.58319e-15 0)
(0.0269506 -3.56248e-15 0)
(0.00017134 4.67542e-15 0)
(6.69834e-08 1.31188e-15 0)
(1.99265e-12 2.56955e-16 0)
(1.35691e-16 2.10334e-16 0)
(-1.07659e-17 9.75778e-17 0)
(-1.04226e-16 2.04913e-16 0)
(-1.52263e-17 1.18178e-16 0)
(7.29053e-17 1.89735e-16 0)
(-2.51609e-17 2.03829e-16 0)
(5.98778e-17 1.11672e-16 0)
(1.49367e-16 2.1684e-16 0)
(4.80513e-17 1.35525e-16 0)
(-5.11593e-17 2.52618e-16 0)
(8.74874e-17 3.93564e-16 0)
(2.10658e-17 5.29089e-16 0)
(1.4272e-16 4.15248e-16 0)
(3.57516e-17 2.53702e-16 0)
(-8.66803e-17 2.13587e-16 0)
(-1.49086e-16 2.79723e-16 0)
(-2.91124e-17 2.28766e-16 0)
(1.62953e-17 2.81892e-16 0)
(-2.11409e-16 1.37693e-16 0)
(-3.47355e-16 1.50704e-16 0)
(-2.3887e-16 -3.68627e-17 0)
(1.78131e-18 -1.01915e-16 0)
(2.18687e-16 -1.06251e-16 0)
(1.0473e-16 -2.92734e-17 0)
(6.10149e-17 2.69965e-16 0)
(4.20264e-17 4.94394e-16 0)
(-1.36724e-16 3.65375e-16 0)
(-1.7768e-16 6.72203e-17 0)
(-2.42807e-16 -1.35525e-16 0)
(-3.84141e-16 -6.61361e-17 0)
(-5.17163e-16 -1.94071e-16 0)
(0 0 0)
(1.61139e-16 0 0)
(4.44203e-16 -4.98731e-17 0)
(1.33231e-17 -2.34187e-16 0)
(-5.42386e-16 -5.35594e-16 0)
(-2.05936e-16 -2.4286e-16 0)
(-5.18972e-17 -2.1684e-17 0)
(4.30057e-18 0 0)
(-8.43811e-18 0 0)
(1.32616e-16 2.1684e-18 0)
(3.93665e-16 1.34441e-16 0)
(1.95749e-16 3.16586e-16 0)
(-3.48163e-17 8.45675e-17 0)
(1.06661e-16 -1.64798e-16 0)
(2.98173e-16 -6.50519e-17 0)
(-5.82766e-17 -9.32411e-17 0)
(-4.08268e-16 0 0)
(-1.13885e-16 -9.97462e-17 0)
(-6.01495e-18 -3.77301e-16 0)
(-5.50171e-17 -1.36609e-16 0)
(1.8176e-16 0 0)
(5.28908e-17 1.51788e-17 0)
(-1.75805e-16 -2.23345e-16 0)
(-1.9314e-17 -4.33679e-17 0)
(1.296e-19 -9.97462e-17 0)
(-4.30522e-18 0 0)
(-3.80678e-19 1.19262e-16 0)
(4.81558e-19 0 0)
(4.54284e-18 0 0)
(-7.30904e-22 0 0)
(-4.72202e-18 0 0)
(-9.42721e-17 0 0)
(5.48166e-18 0 0)
(1.83414e-16 0 0)
(2.4384e-13 -3.25259e-16 0)
(2.07361e-09 4.55363e-17 0)
(1.67515e-06 -2.55871e-15 0)
(0.000178094 2.24528e-14 0)
(0.00369569 -1.8748e-14 0)
(0.0234245 1.26726e-14 0)
(0.0700823 -7.69714e-15 0)
(0.137737 -4.82264e-15 0)
(0.216382 1.78338e-14 0)
(0.300428 -2.20881e-14 0)
(0.387554 8.68282e-15 0)
(0.476956 -1.37793e-15 0)
(0.568346 -4.36713e-15 0)
(0.662198 -3.66235e-16 0)
(0.756742 -6.13532e-16 0)
(0.848985 -8.78051e-16 0)
(0.919672 -2.62325e-15 0)
(0.946882 -2.70599e-15 0)
(0.92346 -1.45425e-15 0)
(0.92531 -2.22843e-15 0)
(0.926794 1.73739e-16 0)
(0.927407 3.41225e-16 0)
(0.929012 -1.83764e-15 0)
(0.931458 1.14519e-15 0)
(0.925686 -5.00678e-15 0)
(0.929788 -2.03866e-15 0)
(0.94722 -2.46253e-17 0)
(0.949126 4.52021e-16 0)
(0.924639 3.11063e-15 0)
(0.780236 4.08583e-16 0)
(0.351032 3.79558e-15 0)
(0.0269506 -4.43032e-15 0)
(0.00017134 2.92797e-15 0)
(6.69834e-08 1.98408e-16 0)
(1.99332e-12 -2.95986e-16 0)
(1.15077e-16 7.58939e-18 0)
(-6.64874e-18 0 0)
(-1.18978e-16 9.75778e-18 0)
(-1.2951e-17 -8.78201e-17 0)
(9.40007e-17 1.95156e-17 0)
(-1.0411e-17 1.6263e-17 0)
(9.85851e-17 -9.21569e-17 0)
(2.04698e-16 5.42099e-18 0)
(7.44983e-17 0 0)
(3.40257e-17 5.31257e-17 0)
(1.34006e-16 1.79977e-16 0)
(2.14229e-17 2.95986e-16 0)
(-1.43968e-20 2.30934e-16 0)
(-2.77347e-17 4.01153e-17 0)
(-1.34587e-16 4.33679e-18 0)
(7.35646e-18 1.2143e-16 0)
(1.36517e-16 3.05744e-16 0)
(1.28049e-17 1.11672e-16 0)
(-3.08192e-16 0 0)
(-5.26951e-16 7.80623e-17 0)
(-3.73448e-16 -7.69781e-17 0)
(-1.19995e-16 1.84314e-17 0)
(1.14057e-16 -2.24429e-16 0)
(3.35565e-16 -2.47197e-16 0)
(3.22872e-16 9.75778e-18 0)
(6.87989e-17 2.66713e-16 0)
(-2.072e-16 1.72388e-16 0)
(-3.94908e-16 -9.43252e-17 0)
(-3.51524e-16 -3.0466e-16 0)
(-2.48178e-16 -2.74302e-16 0)
(-3.27428e-16 -3.78385e-16 0)
(0 0 0)
(5.00401e-17 -2.81892e-17 0)
(1.44514e-16 -3.31765e-16 0)
(-4.73976e-17 -6.17993e-16 0)
(-2.12928e-16 -3.33933e-16 0)
(-3.53566e-17 -1.51788e-17 0)
(6.38979e-17 0 0)
(2.76943e-17 0 0)
(-4.10878e-17 0 0)
(1.20052e-16 0 0)
(4.02564e-16 0 0)
(6.1623e-19 1.06251e-16 0)
(-3.58612e-16 0 0)
(-6.4852e-17 -5.20415e-17 0)
(1.52847e-16 0 0)
(2.18588e-17 -9.32411e-17 0)
(-2.2224e-16 0 0)
(-6.80256e-17 0 0)
(-1.20954e-17 -1.14925e-16 0)
(-1.47962e-17 0 0)
(1.62289e-16 0 0)
(4.02894e-18 -9.32411e-17 0)
(-1.49616e-16 -4.55363e-17 0)
(-1.65558e-17 0 0)
(1.03466e-18 0 0)
(-3.15578e-18 0 0)
(-1.02923e-18 0 0)
(6.44919e-19 0 0)
(-2.79317e-18 0 0)
(-3.62781e-20 0 0)
(-2.61377e-17 0 0)
(-1.91088e-16 0 0)
(7.69484e-18 -9.75778e-17 0)
(2.27501e-16 -4.33679e-18 0)
(2.43747e-13 -2.03829e-16 0)
(2.07361e-09 -1.5439e-15 0)
(1.67515e-06 -1.06468e-15 0)
(0.000178094 4.46106e-15 0)
(0.00369569 -2.92564e-15 0)
(0.0234245 1.35485e-15 0)
(0.0700823 -2.02471e-15 0)
(0.137737 -8.7691e-15 0)
(0.216382 1.646e-14 0)
(0.300428 -1.70881e-14 0)
(0.387554 5.77281e-15 0)
(0.476956 -1.83394e-16 0)
(0.568346 -1.11516e-15 0)
(0.662198 -6.91233e-16 0)
(0.756742 3.42286e-16 0)
(0.848985 -2.74715e-15 0)
(0.919672 5.98367e-16 0)
(0.946882 1.32364e-15 0)
(0.92346 1.90361e-16 0)
(0.92531 -4.46842e-16 0)
(0.926794 6.92011e-16 0)
(0.927407 2.72164e-17 0)
(0.929012 -1.14642e-15 0)
(0.931458 -2.78626e-16 0)
(0.925686 -3.47886e-15 0)
(0.929788 -9.59457e-16 0)
(0.94722 -7.12123e-16 0)
(0.949126 -3.60101e-16 0)
(0.924639 1.59714e-15 0)
(0.780236 4.59076e-16 0)
(0.351032 1.47765e-15 0)
(0.0269506 -1.66468e-15 0)
(0.00017134 9.97308e-17 0)
(6.69834e-08 1.51788e-17 0)
(1.99345e-12 -4.01153e-17 0)
(1.67526e-16 0 0)
(-4.75534e-17 8.99885e-17 0)
(-2.21494e-16 0 0)
(-4.31997e-17 -1.51788e-17 0)
(8.67949e-17 -9.64936e-17 0)
(-1.62024e-17 -3.03576e-17 0)
(9.95123e-17 -2.27682e-17 0)
(2.19412e-16 0 0)
(5.80569e-17 0 0)
(8.0279e-17 2.1684e-18 0)
(2.0074e-16 0 0)
(5.73012e-17 0 0)
(-1.71901e-18 0 0)
(-2.07697e-17 0 0)
(-1.38455e-16 0 0)
(5.42099e-17 0 0)
(2.20183e-16 1.49619e-16 0)
(1.68597e-17 0 0)
(-2.9799e-16 0 0)
(-5.33544e-16 0 0)
(-3.50174e-16 0 0)
(-1.9937e-16 -1.6263e-17 0)
(2.80945e-17 -9.10727e-17 0)
(3.2613e-16 -9.8662e-17 0)
(4.09651e-16 0 0)
(1.46056e-16 0 0)
(-2.70672e-16 0 0)
(-5.0997e-16 5.63783e-17 0)
(-3.4318e-16 -9.75778e-17 0)
(-1.46192e-16 -9.64936e-17 0)
(-1.39862e-16 -1.94071e-16 0)
(1.27935e-16 1.99492e-16 0)
(1.27207e-16 0 0)
(-1.182e-16 -1.01915e-16 0)
(-6.54609e-17 -3.16586e-16 0)
(-1.21654e-17 -7.58939e-17 0)
(2.13926e-17 0 0)
(2.4193e-16 4.11995e-17 0)
(6.60315e-17 2.08166e-16 0)
(-9.68735e-17 8.67359e-17 0)
(1.27128e-16 -2.1684e-18 0)
(4.15585e-16 0 0)
(4.42569e-17 0 0)
(-3.22455e-16 0 0)
(-3.20939e-17 -7.15571e-17 0)
(1.877e-16 0 0)
(2.86082e-17 9.32411e-17 0)
(-2.16022e-16 6.07151e-17 0)
(-1.68187e-16 0 0)
(-4.12863e-17 0 0)
(1.57558e-17 0 0)
(2.14933e-16 0 0)
(4.40686e-18 9.32411e-17 0)
(-1.95343e-16 0 0)
(-1.89422e-17 0 0)
(2.92661e-18 0 0)
(-2.8776e-17 0 0)
(-1.17049e-17 0 0)
(-8.65621e-19 0 0)
(-3.28842e-17 0 0)
(-5.96854e-19 0 0)
(-7.17391e-17 0 0)
(-2.4398e-16 -1.60461e-16 0)
(-1.6168e-17 -3.49112e-16 0)
(2.41178e-16 -1.66967e-16 0)
(2.43761e-13 -3.46943e-17 0)
(2.07361e-09 -1.29887e-15 0)
(1.67515e-06 -3.51281e-16 0)
(0.000178094 -6.35653e-15 0)
(0.00369569 6.6126e-15 0)
(0.0234245 -5.09204e-15 0)
(0.0700823 1.61148e-17 0)
(0.137737 -7.51585e-15 0)
(0.216382 1.05259e-14 0)
(0.300428 -9.71979e-15 0)
(0.387554 1.02939e-15 0)
(0.476956 -1.22428e-15 0)
(0.568346 5.93555e-16 0)
(0.662198 -9.68118e-16 0)
(0.756742 2.51763e-15 0)
(0.848985 -6.52065e-16 0)
(0.919672 2.64276e-15 0)
(0.946882 2.56165e-15 0)
(0.92346 5.7299e-16 0)
(0.92531 6.13445e-16 0)
(0.926794 -7.96386e-16 0)
(0.927407 -7.34502e-16 0)
(0.929012 -9.26515e-16 0)
(0.931458 -1.2798e-15 0)
(0.925686 -3.18684e-15 0)
(0.929788 -5.33911e-16 0)
(0.94722 -7.85496e-16 0)
(0.949126 -2.06566e-16 0)
(0.924639 2.84005e-16 0)
(0.780236 1.33486e-17 0)
(0.351032 -2.75239e-15 0)
(0.0269506 1.13381e-16 0)
(0.00017134 -9.59367e-16 0)
(6.69834e-08 1.01156e-15 0)
(1.9934e-12 -1.0842e-18 0)
(1.46352e-16 -1.0842e-16 0)
(-3.32446e-17 -8.99885e-17 0)
(-2.09892e-16 -1.63714e-16 0)
(-4.67861e-17 -1.23599e-16 0)
(9.6247e-17 -2.66713e-16 0)
(-9.07467e-18 -1.64798e-16 0)
(1.23908e-16 -3.03576e-17 0)
(2.72762e-16 -9.10727e-17 0)
(1.13859e-16 -1.07336e-16 0)
(6.54481e-18 3.90311e-17 0)
(-8.12818e-18 -1.05167e-16 0)
(-2.67023e-18 -2.28766e-16 0)
(3.08242e-17 -2.20092e-16 0)
(1.29893e-16 -1.70219e-16 0)
(2.00422e-17 -3.79469e-17 0)
(6.48483e-17 6.93887e-17 0)
(1.08784e-16 9.75778e-18 0)
(-1.32234e-18 0 0)
(-2.56039e-16 0 0)
(-4.76194e-16 0 0)
(-4.53566e-16 8.45675e-17 0)
(-2.75727e-16 -9.10727e-17 0)
(7.37449e-17 -1.0842e-18 0)
(3.69941e-16 0 0)
(4.07613e-16 -6.39677e-17 0)
(2.21963e-16 -1.74556e-16 0)
(-9.35008e-17 4.01153e-17 0)
(-3.82312e-16 2.27682e-16 0)
(-4.78887e-16 1.25767e-16 0)
(-3.15266e-16 1.72388e-16 0)
(-2.02745e-16 1.52872e-16 0)
(4.14164e-16 4.74879e-16 0)
(1.8352e-16 1.84314e-16 0)
(-2.17017e-16 1.34441e-16 0)
(-2.53636e-16 -1.32272e-16 0)
(-4.29251e-17 2.1684e-18 0)
(1.42326e-16 0 0)
(3.2565e-16 2.90565e-16 0)
(1.00467e-16 5.1391e-16 0)
(-8.22254e-17 3.33933e-16 0)
(1.56386e-16 1.10588e-16 0)
(3.17144e-16 1.34441e-16 0)
(5.59203e-17 -1.34441e-16 0)
(-2.34536e-16 -7.80623e-17 0)
(-2.963e-17 -2.7105e-16 0)
(2.02344e-16 -6.93887e-17 0)
(3.78659e-17 1.73472e-17 0)
(-2.30168e-16 2.8406e-16 0)
(-3.3054e-16 1.06251e-16 0)
(-9.97184e-17 0 0)
(5.58339e-17 0 0)
(2.43709e-16 0 0)
(-1.64228e-18 -3.03576e-17 0)
(-1.9509e-16 0 0)
(-5.69065e-18 0 0)
(1.65993e-21 0 0)
(-1.40022e-16 0 0)
(-5.72315e-17 0 0)
(-1.25773e-17 0 0)
(-1.15803e-16 0 0)
(-5.42435e-18 0 0)
(-1.1146e-16 0 0)
(-3.71129e-16 8.67359e-18 0)
(-2.48946e-17 1.95156e-17 0)
(4.25094e-16 0 0)
(2.43648e-13 -6.07151e-17 0)
(2.0736e-09 -5.63783e-17 0)
(1.67515e-06 -9.64938e-16 0)
(0.000178094 -1.2262e-14 0)
(0.00369569 1.04475e-14 0)
(0.0234245 -5.33647e-15 0)
(0.0700823 -3.3611e-15 0)
(0.137737 -1.58884e-15 0)
(0.216382 1.11494e-15 0)
(0.300428 9.01154e-17 0)
(0.387554 -4.27289e-15 0)
(0.476956 -2.54934e-15 0)
(0.568346 1.71591e-15 0)
(0.662198 -9.28844e-16 0)
(0.756742 3.29585e-15 0)
(0.848985 9.85159e-16 0)
(0.919672 2.67864e-15 0)
(0.946882 3.18763e-15 0)
(0.92346 6.58478e-16 0)
(0.92531 1.51291e-15 0)
(0.926794 -1.70565e-15 0)
(0.927407 -3.37653e-15 0)
(0.929012 -1.4814e-15 0)
(0.931458 -2.52522e-15 0)
(0.925686 -3.7349e-15 0)
(0.929788 2.46915e-16 0)
(0.94722 -1.28604e-15 0)
(0.949126 -2.57576e-17 0)
(0.924639 -4.93136e-16 0)
(0.780236 -6.10554e-16 0)
(0.351032 -4.48285e-15 0)
(0.0269506 1.40507e-15 0)
(0.00017134 -3.84722e-15 0)
(6.69834e-08 3.03575e-16 0)
(1.99322e-12 -2.60208e-17 0)
(3.30112e-17 -2.5045e-16 0)
(-1.2556e-18 -2.19008e-16 0)
(-5.07719e-17 -3.20923e-16 0)
(-5.60579e-17 -1.70219e-16 0)
(8.92659e-17 -9.10727e-17 0)
(-1.42084e-17 -6.28835e-17 0)
(4.47722e-17 -8.45675e-17 0)
(1.7853e-16 -2.19008e-16 0)
(1.14498e-16 -2.75386e-16 0)
(9.05188e-18 -1.70219e-16 0)
(-1.09564e-16 -2.95986e-16 0)
(-1.82797e-18 -4.391e-16 0)
(6.30974e-17 -4.30427e-16 0)
(2.05108e-16 -3.74048e-16 0)
(9.42771e-17 -2.13587e-16 0)
(1.09648e-16 -6.93887e-17 0)
(1.25707e-16 0 0)
(-3.86513e-18 0 0)
(-8.06813e-17 -6.72203e-17 0)
(-3.27142e-16 5.09573e-17 0)
(-4.82804e-16 2.51534e-16 0)
(-2.61127e-16 1.13841e-16 0)
(2.76487e-17 5.42099e-18 0)
(2.813e-16 9.10727e-17 0)
(4.20916e-16 -2.10334e-16 0)
(2.73676e-16 -3.70796e-16 0)
(8.05075e-17 -1.37693e-16 0)
(-3.02069e-16 5.09573e-17 0)
(-4.39765e-16 2.65629e-16 0)
(-3.08591e-16 3.96817e-16 0)
(-4.09827e-16 3.59954e-16 0)
(6.26667e-16 2.53702e-16 0)
(2.40549e-16 1.04083e-16 0)
(-2.28852e-16 6.28835e-17 0)
(-3.24529e-16 1.49619e-16 0)
(4.7709e-18 8.02307e-17 0)
(3.13024e-16 2.40692e-16 0)
(5.1017e-16 1.6263e-16 0)
(1.44411e-16 2.58039e-16 0)
(-2.65796e-16 1.86482e-16 0)
(2.65495e-16 3.31765e-16 0)
(-4.05237e-17 3.03576e-17 0)
(-1.70238e-16 -2.53702e-16 0)
(-1.8398e-16 4.81481e-34 0)
(-7.39037e-17 8.89043e-17 0)
(2.33813e-16 -2.1684e-18 0)
(2.60163e-16 -2.05998e-16 0)
(-5.02839e-17 9.54094e-17 0)
(-4.16857e-16 2.34187e-16 0)
(-1.51624e-16 7.15571e-17 0)
(7.81611e-17 1.73472e-16 0)
(-1.522e-16 1.0842e-17 0)
(-1.27135e-16 -2.7105e-16 0)
(1.3451e-16 3.25259e-17 0)
(2.77605e-16 2.60208e-16 0)
(-5.12421e-17 1.17093e-16 0)
(-3.25356e-16 2.38524e-17 0)
(-1.40581e-16 0 0)
(-3.5048e-17 0 0)
(-2.0722e-16 2.60208e-17 0)
(-2.85042e-17 -4.33679e-18 0)
(4.59126e-17 2.60208e-17 0)
(-1.34231e-16 2.08166e-16 0)
(4.72836e-17 3.90311e-16 0)
(1.39158e-16 1.49619e-16 0)
(2.43374e-13 -8.23991e-17 0)
(2.07361e-09 1.10805e-15 0)
(1.67515e-06 -2.79073e-15 0)
(0.000178094 -7.23052e-15 0)
(0.00369569 -3.19102e-15 0)
(0.0234245 5.28006e-15 0)
(0.0700823 -9.37308e-15 0)
(0.137737 5.12162e-15 0)
(0.216382 -1.0505e-14 0)
(0.300428 7.98085e-15 0)
(0.387554 -7.93058e-15 0)
(0.476956 -9.20273e-16 0)
(0.568346 5.50387e-16 0)
(0.662198 -6.20538e-16 0)
(0.756742 2.39923e-15 0)
(0.848985 -1.69254e-15 0)
(0.919672 3.79732e-15 0)
(0.946882 4.16163e-15 0)
(0.92346 1.48857e-15 0)
(0.92531 3.56639e-16 0)
(0.926794 -5.26125e-16 0)
(0.927407 -2.65428e-15 0)
(0.929012 -6.60801e-16 0)
(0.931458 -2.98592e-15 0)
(0.925686 -3.84008e-15 0)
(0.929788 7.4421e-16 0)
(0.94722 -3.48774e-16 0)
(0.949126 -1.77273e-16 0)
(0.924639 -1.43345e-15 0)
(0.780236 -2.1648e-16 0)
(0.351032 -2.97575e-15 0)
(0.0269506 -2.90339e-16 0)
(0.00017134 -1.89163e-15 0)
(6.69834e-08 -1.47668e-15 0)
(1.99285e-12 3.76217e-16 0)
(1.69287e-16 -1.14925e-16 0)
(-4.5103e-17 -5.96309e-17 0)
(-2.64684e-17 -1.36609e-16 0)
(7.97728e-17 -3.36101e-17 0)
(1.5283e-17 3.68627e-17 0)
(-8.74446e-17 -6.61361e-17 0)
(-7.04095e-17 3.57785e-17 0)
(7.6045e-17 -8.99885e-17 0)
(1.66487e-16 -1.17093e-16 0)
(-6.97976e-18 -6.72203e-17 0)
(-1.66062e-16 -1.8865e-16 0)
(1.81486e-18 -1.98408e-16 0)
(1.09938e-16 -2.15755e-16 0)
(2.74782e-16 -1.87566e-16 0)
(1.74055e-16 -2.30934e-16 0)
(2.14517e-16 -8.56517e-17 0)
(1.51079e-16 0 0)
(7.48244e-18 -9.21569e-17 0)
(3.48046e-17 -2.36355e-16 0)
(-3.45181e-17 -8.67359e-18 0)
(-2.63967e-16 2.24429e-16 0)
(-2.59961e-16 3.20923e-16 0)
(-6.7038e-17 1.2902e-16 0)
(1.40618e-16 0 0)
(2.32519e-16 -1.48535e-16 0)
(4.10667e-16 -2.33103e-16 0)
(2.15672e-16 -6.93887e-17 0)
(-1.18809e-16 -9.54094e-17 0)
(-3.05894e-16 1.24683e-16 0)
(-3.7891e-16 2.10334e-16 0)
(-5.37762e-16 2.38524e-16 0)
(4.29343e-16 -4.33679e-18 0)
(1.66727e-16 2.55871e-16 0)
(-1.5907e-16 2.45029e-16 0)
(-1.15088e-16 4.27174e-16 0)
(1.54692e-16 3.27428e-16 0)
(4.01978e-16 5.70288e-16 0)
(3.27109e-16 3.44775e-16 0)
(1.33731e-17 1.23599e-16 0)
(-8.31974e-17 1.97324e-16 0)
(-9.68033e-17 -3.25259e-17 0)
(-3.09134e-16 -2.90565e-16 0)
(-6.26947e-17 -4.55363e-17 0)
(-2.03075e-16 2.40692e-16 0)
(-1.14809e-17 4.51026e-16 0)
(2.22235e-16 2.21176e-16 0)
(9.24005e-17 -2.1684e-17 0)
(4.2936e-17 1.53956e-16 0)
(-2.21845e-16 4.14164e-16 0)
(-3.79389e-17 2.81892e-16 0)
(6.69873e-17 4.61868e-16 0)
(-1.70114e-16 2.32018e-16 0)
(-1.27526e-16 6.28835e-17 0)
(1.46039e-16 2.55871e-16 0)
(2.69504e-16 5.8113e-16 0)
(-9.01801e-17 3.75133e-16 0)
(-4.58855e-16 2.27682e-16 0)
(-2.17931e-16 2.81892e-17 0)
(-4.2532e-17 6.50519e-17 0)
(-2.27689e-16 6.50519e-17 0)
(-6.53784e-17 -1.34441e-16 0)
(1.38647e-16 0 0)
(1.23334e-16 0 0)
(2.74186e-16 2.23345e-16 0)
(1.01058e-16 4.44521e-16 0)
(2.42985e-13 -6.72203e-17 0)
(2.07361e-09 -2.86228e-16 0)
(1.67515e-06 -3.43258e-15 0)
(0.000178094 4.04901e-15 0)
(0.00369569 -1.73951e-14 0)
(0.0234245 1.45882e-14 0)
(0.0700823 -1.04723e-14 0)
(0.137737 8.72639e-15 0)
(0.216382 -1.84233e-14 0)
(0.300428 1.17164e-14 0)
(0.387554 -7.99758e-15 0)
(0.476956 1.55306e-16 0)
(0.568346 -2.38681e-15 0)
(0.662198 -2.65005e-15 0)
(0.756742 3.002e-15 0)
(0.848985 2.38933e-16 0)
(0.919672 3.65851e-15 0)
(0.946882 2.26358e-15 0)
(0.92346 1.85594e-15 0)
(0.92531 5.07833e-16 0)
(0.926794 7.30293e-16 0)
(0.927407 -1.20603e-15 0)
(0.929012 -8.85467e-16 0)
(0.931458 -2.83167e-15 0)
(0.925686 -1.72997e-15 0)
(0.929788 -9.28778e-16 0)
(0.94722 2.01023e-16 0)
(0.949126 -6.37374e-16 0)
(0.924639 -1.22329e-15 0)
(0.780236 -1.15436e-15 0)
(0.351032 -3.22939e-15 0)
(0.0269506 -3.71083e-15 0)
(0.00017134 2.80764e-15 0)
(6.69834e-08 -1.87241e-15 0)
(1.99229e-12 -4.44521e-17 0)
(-9.42034e-18 1.16009e-16 0)
(-5.17086e-17 3.46943e-17 0)
(7.65346e-18 1.36609e-16 0)
(1.09992e-16 3.46943e-17 0)
(7.85584e-18 -6.50519e-17 0)
(-9.52309e-17 3.90311e-17 0)
(3.71378e-17 1.50704e-16 0)
(2.17788e-16 1.59377e-16 0)
(1.00647e-16 2.1684e-18 0)
(-8.7109e-17 -7.80623e-17 0)
(-6.21111e-17 8.23991e-17 0)
(9.49494e-17 1.56125e-16 0)
(-2.72742e-20 5.42099e-17 0)
(6.99489e-17 6.28835e-17 0)
(2.05251e-16 -5.31257e-17 0)
(2.59331e-16 0 0)
(6.64147e-17 0 0)
(-1.01283e-16 -1.48535e-16 0)
(5.91164e-17 -5.42099e-17 0)
(1.53938e-16 0 0)
(-2.54493e-17 -1.73472e-17 0)
(-1.82405e-16 1.39862e-16 0)
(-1.32854e-16 3.03576e-17 0)
(4.69207e-17 9.64936e-17 0)
(1.58851e-16 1.48535e-16 0)
(3.02698e-16 6.93887e-17 0)
(1.27688e-16 -1.35525e-16 0)
(-1.97763e-16 -2.03829e-16 0)
(-3.75066e-16 -2.27682e-17 0)
(-3.42054e-16 1.30104e-17 0)
(-4.44521e-16 1.05167e-16 0)
(6.46182e-16 -2.2985e-16 0)
(2.73294e-16 -9.97462e-17 0)
(-1.3574e-16 -7.37255e-17 0)
(-1.54622e-16 1.58293e-16 0)
(1.8909e-16 1.45283e-16 0)
(4.94835e-16 2.53702e-16 0)
(1.66284e-16 -3.25259e-17 0)
(-4.39491e-17 -3.14417e-16 0)
(-3.04923e-16 -1.92987e-16 0)
(-4.43809e-16 -4.03322e-16 0)
(-1.02946e-16 -7.58939e-17 0)
(1.602e-16 2.49366e-16 0)
(-2.91082e-17 6.93887e-17 0)
(-2.10715e-16 2.51534e-16 0)
(-3.24155e-17 -4.33679e-18 0)
(2.76285e-16 -4.77047e-17 0)
(1.88736e-16 -1.60461e-16 0)
(4.02103e-18 2.38524e-17 0)
(9.39029e-19 4.33679e-18 0)
(2.39764e-17 6.72203e-17 0)
(-1.62634e-16 -1.17093e-16 0)
(-1.00384e-16 4.33679e-18 0)
(1.46067e-16 8.02307e-17 0)
(7.0313e-17 1.99492e-16 0)
(-2.79667e-16 8.67359e-18 0)
(-6.53082e-16 4.33679e-18 0)
(-2.7263e-16 0 0)
(1.40473e-16 0 0)
(-4.7995e-17 -1.25767e-16 0)
(-3.3704e-16 -3.77301e-16 0)