/*--------------------------------*- C++ -*----------------------------------*\
| =========                 |                                                 |
| \\      /  F ield         | OpenFOAM: The Open Source CFD Toolbox           |
|  \\    /   O peration     | Version:  4.1                                   |
|   \\  /    A nd           | Web:      www.OpenFOAM.org                      |
|    \\/     M anipulation  |                                                 |
\*---------------------------------------------------------------------------*/
FoamFile
{
    version     2.0;
    format      ascii;
    class       volVectorField;
    location    "0.19";
    object      U;
}
// * * * * * * * * * * * * * * * * * * * * * * * * * * * * * * * * * * * * * //

dimensions      [0 1 -1 0 0 0 0];

internalField   nonuniform List<vector> 
10000
(
(0 0 0)
(9.14748e-17 0 0)
(2.45995e-16 0 0)
(6.20769e-17 1.32272e-16 0)
(-1.05635e-16 0 0)
(-1.54938e-16 0 0)
(-1.79269e-16 0 0)
(-2.4413e-17 0 0)
(-2.00816e-27 0 0)
(1.34585e-16 1.27935e-16 0)
(3.54373e-16 0 0)
(4.25433e-17 -1.51788e-16 0)
(-2.91339e-16 0 0)
(-4.53641e-18 0 0)
(1.58915e-16 0 0)
(-2.72304e-17 1.27935e-16 0)
(-2.1503e-16 0 0)
(-6.66805e-17 0 0)
(-5.15453e-18 0 0)
(-6.77804e-17 0 0)
(2.12091e-19 0 0)
(3.79163e-17 1.01915e-16 0)
(1.11399e-17 0 0)
(9.18827e-17 0 0)
(-4.29462e-17 0 0)
(-1.91028e-16 0 0)
(-3.11734e-16 -1.17093e-16 0)
(-2.45985e-17 8.67359e-17 0)
(2.83067e-16 0 0)
(4.49645e-17 1.36609e-16 0)
(-1.78907e-16 0 0)
(2.30926e-17 -2.55871e-16 0)
(5.59234e-14 -2.64544e-16 0)
(6.26415e-10 -1.12757e-16 0)
(6.57052e-07 1.84314e-15 0)
(8.79454e-05 5.80523e-15 0)
(0.00220266 -3.70836e-15 0)
(0.0159962 3.10803e-15 0)
(0.0521057 3.01488e-15 0)
(0.107418 1.87121e-14 0)
(0.173251 1.9306e-14 0)
(0.244217 1.86123e-14 0)
(0.317969 1.05791e-14 0)
(0.393536 1.35677e-14 0)
(0.470531 1.35064e-14 0)
(0.548902 5.24396e-16 0)
(0.628625 -1.17465e-14 0)
(0.709656 -6.40904e-15 0)
(0.79078 1.77232e-14 0)
(0.86741 7.53068e-15 0)
(0.924849 2.05743e-15 0)
(0.943839 4.00727e-15 0)
(0.923171 3.69898e-15 0)
(0.925263 6.06207e-15 0)
(0.927046 4.06078e-15 0)
(0.927628 4.03809e-15 0)
(0.927963 4.0458e-15 0)
(0.928284 3.58612e-15 0)
(0.930086 4.88601e-15 0)
(0.931924 2.38539e-15 0)
(0.920894 4.23188e-15 0)
(0.92489 3.40387e-15 0)
(0.936726 2.4088e-15 0)
(0.942233 2.87328e-16 0)
(0.938149 -5.49663e-15 0)
(0.894975 -8.35144e-15 0)
(0.674178 -6.42065e-15 0)
(0.200168 -6.8289e-16 0)
(0.00721186 -2.04716e-16 0)
(1.9499e-05 1.04298e-15 0)
(2.88836e-09 -1.7564e-16 0)
(7.64404e-14 5.42099e-18 0)
(-3.048e-18 1.95156e-16 0)
(-7.32739e-17 4.87889e-16 0)
(-1.80518e-16 2.1684e-16 0)
(5.10215e-17 0 0)
(2.63214e-16 0 0)
(6.27301e-17 0 0)
(-1.26932e-16 9.54094e-17 0)
(6.23703e-17 0 0)
(2.62052e-16 0 0)
(5.95217e-17 0 0)
(-1.44496e-16 0 0)
(5.66219e-17 0 0)
(2.46093e-16 9.75778e-17 0)
(7.11457e-17 0 0)
(-1.46226e-16 0 0)
(-4.19781e-17 0 0)
(-3.91381e-17 0 0)
(-1.28079e-16 0 0)
(-2.04216e-16 -6.50519e-18 0)
(-3.58307e-16 0 0)
(-1.50655e-16 1.30104e-17 0)
(6.32128e-17 0 0)
(2.69886e-16 0 0)
(5.85216e-17 0 0)
(-1.57481e-16 8.45675e-17 0)
(-1.64715e-16 0 0)
(-7.57397e-17 0 0)
(0 1.30104e-17 0)
(0 0 0)
(1.30854e-16 0 0)
(2.64278e-16 1.30104e-16 0)
(7.51048e-17 3.16586e-16 0)
(-1.27355e-16 1.25767e-16 0)
(-2.67096e-16 2.47197e-16 0)
(-2.50058e-16 4.98731e-17 0)
(-3.37052e-17 0 0)
(-3.36152e-24 0 0)
(1.57019e-16 0 0)
(4.23584e-16 0 0)
(9.77565e-17 0 0)
(-2.45483e-16 0 0)
(2.08362e-17 0 0)
(1.49897e-16 1.30104e-16 0)
(-3.76228e-17 3.12249e-16 0)
(-2.30372e-16 1.27935e-16 0)
(-1.12883e-16 0 0)
(-2.08283e-17 0 0)
(-1.45448e-16 0 0)
(5.54933e-19 0 0)
(6.59857e-17 2.1684e-18 0)
(2.79898e-17 0 0)
(1.10131e-16 1.10588e-16 0)
(-9.32453e-17 2.86228e-16 0)
(-2.87114e-16 9.32411e-17 0)
(-2.20188e-16 6.93887e-17 0)
(-1.62679e-17 2.7105e-16 0)
(1.71041e-16 8.89043e-17 0)
(5.57366e-17 0 0)
(-1.83157e-16 0 0)
(1.63369e-17 8.02307e-17 0)
(5.52895e-14 4.98731e-17 0)
(6.26416e-10 5.85467e-17 0)
(6.57052e-07 5.14994e-15 0)
(8.79454e-05 5.86378e-15 0)
(0.00220266 8.0967e-15 0)
(0.0159962 3.29706e-15 0)
(0.0521057 3.48184e-15 0)
(0.107418 2.38563e-14 0)
(0.173251 -1.24071e-14 0)
(0.244217 2.71691e-14 0)
(0.317969 1.78077e-14 0)
(0.393536 -6.50528e-16 0)
(0.470531 8.30092e-15 0)
(0.548902 4.77253e-15 0)
(0.628625 3.95926e-15 0)
(0.709656 -2.58992e-15 0)
(0.79078 9.3702e-15 0)
(0.86741 8.31638e-15 0)
(0.924849 5.93534e-15 0)
(0.943839 5.45412e-15 0)
(0.923171 2.05862e-15 0)
(0.925263 7.41492e-15 0)
(0.927046 4.22139e-15 0)
(0.927628 2.4159e-15 0)
(0.927963 1.91488e-15 0)
(0.928284 1.91554e-15 0)
(0.930086 2.15901e-15 0)
(0.931924 9.47675e-16 0)
(0.920894 6.06759e-15 0)
(0.92489 5.02225e-15 0)
(0.936726 3.60582e-15 0)
(0.942233 3.44743e-15 0)
(0.938149 6.28769e-16 0)
(0.894975 -2.26451e-15 0)
(0.674178 -2.67943e-15 0)
(0.200168 1.9814e-16 0)
(0.00721186 -3.46508e-15 0)
(1.9499e-05 2.12607e-15 0)
(2.88836e-09 -1.37693e-16 0)
(7.64769e-14 1.2902e-16 0)
(7.65794e-17 1.53956e-16 0)
(-9.96824e-17 2.8406e-16 0)
(-1.84829e-16 1.7564e-16 0)
(2.13941e-17 1.43114e-16 0)
(2.07052e-16 1.30104e-17 0)
(1.17071e-17 3.14417e-17 0)
(-1.58179e-16 1.98408e-16 0)
(1.46765e-17 2.81892e-17 0)
(2.16764e-16 0 0)
(4.37748e-17 0 0)
(-1.4864e-16 3.57785e-17 0)
(4.72916e-17 1.49619e-16 0)
(2.51692e-16 2.00577e-16 0)
(7.40658e-17 2.1684e-17 0)
(-1.73304e-16 0 0)
(-7.17646e-17 0 0)
(-6.9855e-17 0 0)
(-1.71232e-16 -6.50519e-18 0)
(-1.33982e-16 -3.25259e-17 0)
(-2.43355e-16 9.21569e-17 0)
(-1.20699e-16 2.14671e-16 0)
(7.06453e-17 4.87889e-17 0)
(2.81507e-16 0 0)
(6.0127e-17 1.95156e-17 0)
(-1.78705e-16 1.87566e-16 0)
(-2.48151e-16 1.9624e-16 0)
(-1.5771e-16 1.2902e-16 0)
(-1.05167e-16 2.23345e-16 0)
(0 0 0)
(2.00231e-16 0 0)
(5.01182e-16 0 0)
(9.74329e-17 8.67359e-17 0)
(-3.49553e-16 3.44775e-16 0)
(-3.25941e-16 5.72457e-16 0)
(-2.6413e-16 2.40692e-16 0)
(-3.44034e-17 0 0)
(-1.12754e-21 0 0)
(2.02245e-16 0 0)
(5.0352e-16 0 0)
(1.69075e-16 2.1684e-18 0)
(-1.21654e-16 1.95156e-17 0)
(9.20706e-17 2.32018e-16 0)
(3.17283e-16 8.02307e-17 0)
(-4.77225e-17 7.37255e-17 0)
(-4.07313e-16 0 0)
(-1.54768e-16 0 0)
(-5.84487e-17 1.01915e-16 0)
(-2.39945e-16 0 0)
(4.39667e-19 0 0)
(1.6382e-16 0 0)
(6.21025e-17 8.45675e-17 0)
(1.48696e-16 3.68627e-16 0)
(-1.05415e-16 6.20161e-16 0)
(-3.90025e-16 3.3827e-16 0)
(-3.78456e-16 6.50519e-18 0)
(-3.07056e-17 4.98731e-17 0)
(3.04591e-16 0 0)
(8.05082e-17 0 0)
(-1.52424e-20 1.36609e-16 0)
(-1.77877e-17 4.03322e-16 0)
(5.58964e-14 4.27174e-16 0)
(6.26415e-10 7.63276e-16 0)
(6.57052e-07 6.36858e-15 0)
(8.79454e-05 3.14441e-15 0)
(0.00220266 1.94325e-14 0)
(0.0159962 2.51236e-15 0)
(0.0521057 -2.24982e-15 0)
(0.107418 2.54039e-14 0)
(0.173251 -2.24156e-14 0)
(0.244217 2.39976e-14 0)
(0.317969 1.83582e-14 0)
(0.393536 -9.60638e-15 0)
(0.470531 5.60784e-15 0)
(0.548902 2.75264e-15 0)
(0.628625 5.00498e-15 0)
(0.709656 -2.77903e-15 0)
(0.79078 7.7872e-15 0)
(0.86741 2.87649e-15 0)
(0.924849 1.89894e-15 0)
(0.943839 3.44726e-15 0)
(0.923171 1.47858e-15 0)
(0.925263 9.48715e-15 0)
(0.927046 4.16753e-15 0)
(0.927628 1.61862e-15 0)
(0.927963 -8.40713e-17 0)
(0.928284 7.86764e-16 0)
(0.930086 6.02004e-17 0)
(0.931924 -1.78237e-15 0)
(0.920894 4.11154e-15 0)
(0.92489 5.77777e-15 0)
(0.936726 4.29091e-15 0)
(0.942233 6.00135e-15 0)
(0.938149 5.04342e-15 0)
(0.894975 1.20672e-15 0)
(0.674178 2.14569e-15 0)
(0.200168 1.01558e-15 0)
(0.00721186 -4.34644e-15 0)
(1.9499e-05 2.74622e-15 0)
(2.88836e-09 -9.10727e-17 0)
(7.62173e-14 2.22261e-16 0)
(6.19966e-17 2.04913e-16 0)
(9.51316e-18 1.02999e-16 0)
(-6.53359e-17 2.05998e-16 0)
(6.39623e-17 3.35017e-16 0)
(1.83808e-16 2.4286e-16 0)
(6.66221e-18 1.26851e-16 0)
(-2.00483e-16 1.6263e-16 0)
(-6.87495e-17 2.2985e-16 0)
(1.28281e-16 2.11419e-16 0)
(1.41311e-16 1.45283e-16 0)
(3.85351e-17 2.7105e-16 0)
(1.41656e-16 3.43691e-16 0)
(1.59498e-16 1.39862e-16 0)
(-2.83041e-17 -7.91465e-17 0)
(-1.98358e-16 -2.7105e-17 0)
(-1.00075e-16 7.69781e-17 0)
(-1.03942e-16 -2.60208e-17 0)
(-2.06406e-16 7.80623e-17 0)
(-9.71411e-17 6.93887e-17 0)
(-7.80763e-17 2.59123e-16 0)
(-1.32368e-16 4.18501e-16 0)
(7.61979e-18 3.07912e-16 0)
(1.89214e-16 1.27935e-16 0)
(8.67883e-17 1.40946e-17 0)
(-1.23531e-16 1.98408e-16 0)
(-3.24467e-16 3.98985e-16 0)
(-2.24402e-16 3.10081e-16 0)
(-2.94902e-16 4.10911e-16 0)
(-2.1684e-18 -2.1684e-18 0)
(2.66932e-16 -2.1684e-18 0)
(5.95084e-16 -2.1684e-18 0)
(2.36796e-16 3.90311e-17 0)
(-2.25862e-16 2.86228e-16 0)
(-5.82751e-16 1.64798e-16 0)
(-2.82026e-16 -2.1684e-18 0)
(-2.03471e-17 -2.1684e-18 0)
(-8.45126e-20 0 0)
(9.62622e-17 0 0)
(3.49037e-16 -4.33679e-18 0)
(1.66781e-16 -1.66967e-16 0)
(2.01065e-16 1.90819e-16 0)
(1.49328e-16 5.48604e-16 0)
(2.21896e-16 2.64544e-16 0)
(-4.13793e-17 0 0)
(-2.81093e-16 -2.1684e-18 0)
(-4.72993e-17 1.17093e-16 0)
(-7.87516e-17 3.49112e-16 0)
(-2.59745e-16 1.73472e-16 0)
(-1.46231e-18 0 0)
(2.5453e-16 1.47451e-16 0)
(7.22556e-17 3.27428e-16 0)
(2.25224e-16 1.40946e-16 0)
(-1.20833e-16 1.99492e-16 0)
(-4.63845e-16 6.50519e-17 0)
(-4.38664e-16 -4.33679e-18 0)
(-4.05711e-17 0 0)
(3.36284e-16 -2.1684e-18 0)
(8.80444e-17 0 0)
(-4.07474e-20 0 0)
(-2.0782e-16 2.01661e-16 0)
(5.62506e-14 9.75778e-17 0)
(6.26416e-10 1.95373e-15 0)
(6.57052e-07 3.05094e-15 0)
(8.79454e-05 3.53041e-15 0)
(0.00220266 1.55091e-14 0)
(0.0159962 1.27442e-14 0)
(0.0521057 -1.82774e-14 0)
(0.107418 2.9098e-14 0)
(0.173251 -2.23263e-14 0)
(0.244217 1.64319e-14 0)
(0.317969 1.8903e-14 0)
(0.393536 -1.39305e-14 0)
(0.470531 4.40088e-15 0)
(0.548902 2.765e-15 0)
(0.628625 1.99343e-15 0)
(0.709656 -2.47687e-15 0)
(0.79078 2.28113e-15 0)
(0.86741 -2.82371e-15 0)
(0.924849 -8.12974e-16 0)
(0.943839 1.70264e-15 0)
(0.923171 5.39255e-15 0)
(0.925263 4.59594e-15 0)
(0.927046 3.2417e-15 0)
(0.927628 1.31375e-15 0)
(0.927963 5.83475e-16 0)
(0.928284 8.47558e-16 0)
(0.930086 -1.28766e-15 0)
(0.931924 -1.34093e-15 0)
(0.920894 1.90267e-15 0)
(0.92489 4.27636e-15 0)
(0.936726 4.92864e-15 0)
(0.942233 5.19734e-15 0)
(0.938149 3.3878e-15 0)
(0.894975 2.36749e-15 0)
(0.674178 3.4813e-15 0)
(0.200168 2.40348e-15 0)
(0.00721186 5.86133e-16 0)
(1.9499e-05 1.48099e-15 0)
(2.88836e-09 -7.48097e-17 0)
(7.63758e-14 4.32595e-16 0)
(-5.34322e-17 3.35017e-16 0)
(4.32721e-17 2.33103e-16 0)
(9.3792e-17 3.35017e-16 0)
(4.19089e-17 3.5128e-16 0)
(1.13816e-16 4.48858e-16 0)
(-2.45838e-17 2.88397e-16 0)
(-2.05751e-16 2.81892e-16 0)
(-3.72803e-17 4.51026e-16 0)
(1.42355e-16 4.96563e-16 0)
(2.89235e-16 3.49112e-16 0)
(2.39397e-16 4.79216e-16 0)
(1.25978e-17 4.34764e-16 0)
(-1.39423e-16 1.99492e-16 0)
(-2.46558e-17 4.33679e-17 0)
(4.6516e-18 1.22514e-16 0)
(-1.27306e-16 1.53956e-16 0)
(-2.02276e-16 2.38524e-17 0)
(-9.94073e-17 1.25767e-16 0)
(5.59648e-19 2.38524e-17 0)
(3.58326e-17 1.0842e-16 0)
(-1.56454e-16 3.00323e-16 0)
(-1.6583e-16 5.04152e-16 0)
(-2.64103e-17 3.64291e-16 0)
(-9.17893e-17 1.94071e-16 0)
(-5.35588e-18 8.23991e-17 0)
(-1.54857e-16 2.28766e-16 0)
(-3.20998e-16 1.97324e-16 0)
(-5.10657e-16 1.98408e-16 0)
(-2.1684e-18 2.1684e-18 0)
(3.16081e-16 2.1684e-18 0)
(6.63522e-16 2.1684e-18 0)
(2.54116e-16 1.66967e-16 0)
(-4.73125e-16 -1.47451e-16 0)
(-5.46344e-16 -5.44268e-16 0)
(-2.26277e-16 -2.40692e-16 0)
(-5.79017e-18 2.1684e-18 0)
(-1.84747e-18 0 0)
(1.20185e-16 -2.1684e-18 0)
(3.83759e-16 -8.67359e-18 0)
(2.12874e-16 1.43114e-16 0)
(3.92676e-16 1.73472e-17 0)
(2.11547e-16 1.97324e-16 0)
(2.48104e-16 1.51788e-17 0)
(-5.25104e-17 9.10727e-17 0)
(-3.58204e-16 2.1684e-18 0)
(-8.3845e-17 2.1684e-18 0)
(-9.75303e-17 -1.51788e-17 0)
(-2.92422e-16 0 0)
(4.30334e-17 0 0)
(3.23167e-16 2.60208e-16 0)
(5.99563e-17 3.46943e-17 0)
(-2.80278e-17 -9.54094e-17 0)
(-2.03848e-17 -3.66459e-16 0)
(-1.83652e-16 -1.58293e-16 0)
(-1.9881e-16 -1.12757e-16 0)
(3.38518e-17 0 0)
(9.24699e-17 2.1684e-18 0)
(3.15806e-21 0 0)
(-8.35665e-19 0 0)
(-1.58372e-17 1.0842e-17 0)
(5.60014e-14 5.63783e-17 0)
(6.26419e-10 9.97462e-17 0)
(6.57052e-07 -1.23599e-15 0)
(8.79454e-05 6.6835e-15 0)
(0.00220266 1.87482e-15 0)
(0.0159962 2.51236e-14 0)
(0.0521057 -3.22309e-14 0)
(0.107418 2.91111e-14 0)
(0.173251 -1.65714e-14 0)
(0.244217 6.7541e-15 0)
(0.317969 2.08793e-14 0)
(0.393536 -1.55346e-14 0)
(0.470531 4.37789e-15 0)
(0.548902 2.56724e-15 0)
(0.628625 -2.45491e-15 0)
(0.709656 -2.13463e-15 0)
(0.79078 -8.40417e-16 0)
(0.86741 -2.63538e-15 0)
(0.924849 -2.78784e-15 0)
(0.943839 -2.54814e-15 0)
(0.923171 3.7908e-15 0)
(0.925263 -2.40058e-15 0)
(0.927046 8.18119e-16 0)
(0.927628 9.05516e-16 0)
(0.927963 6.81949e-16 0)
(0.928284 1.74169e-15 0)
(0.930086 -2.44555e-15 0)
(0.931924 -1.78324e-15 0)
(0.920894 9.18582e-16 0)
(0.92489 4.00545e-15 0)
(0.936726 6.34316e-15 0)
(0.942233 1.25255e-15 0)
(0.938149 1.85109e-15 0)
(0.894975 8.13809e-16 0)
(0.674178 3.91914e-15 0)
(0.200168 5.68615e-15 0)
(0.00721186 1.12486e-15 0)
(1.9499e-05 1.47231e-15 0)
(2.88836e-09 -6.5594e-16 0)
(7.61458e-14 5.07405e-16 0)
(-1.64358e-17 1.45283e-16 0)
(7.82653e-17 2.39608e-16 0)
(-2.14111e-17 2.4286e-16 0)
(7.2762e-17 1.40946e-16 0)
(1.68911e-16 2.43945e-16 0)
(6.03564e-17 1.79977e-16 0)
(-5.12882e-17 3.07912e-16 0)
(9.02344e-17 4.52111e-16 0)
(4.05779e-17 5.85467e-16 0)
(1.65529e-16 4.71626e-16 0)
(5.49136e-17 2.93818e-16 0)
(-1.0191e-16 2.38524e-16 0)
(-1.51786e-16 3.1767e-16 0)
(-2.75721e-17 2.77555e-16 0)
(1.24063e-17 3.08997e-16 0)
(-2.62628e-16 1.64798e-16 0)
(-4.069e-16 1.58293e-16 0)
(-2.64586e-16 -3.68627e-17 0)
(4.31061e-20 -1.13841e-16 0)
(2.22881e-16 -1.12757e-16 0)
(9.96659e-17 -1.19262e-17 0)
(6.6207e-17 3.06828e-16 0)
(4.46104e-17 5.37762e-16 0)
(-1.56588e-16 4.03322e-16 0)
(-2.20919e-16 7.37255e-17 0)
(-2.97105e-16 -1.35525e-16 0)
(-4.47978e-16 -6.83045e-17 0)
(-5.8872e-16 -1.94071e-16 0)
(0 0 0)
(1.46042e-16 0 0)
(4.16852e-16 -6.72203e-17 0)
(4.50156e-20 -2.86228e-16 0)
(-5.45347e-16 -5.44268e-16 0)
(-2.39516e-16 -2.40692e-16 0)
(-6.97197e-17 -2.1684e-17 0)
(8.08198e-18 0 0)
(-1.47204e-17 0 0)
(1.40872e-16 2.1684e-18 0)
(4.00886e-16 1.77809e-16 0)
(2.09108e-16 3.57785e-16 0)
(-3.01835e-17 1.19262e-16 0)
(1.00445e-16 -1.47451e-16 0)
(2.99313e-16 -6.50519e-17 0)
(-5.8087e-17 -9.32411e-17 0)
(-4.12732e-16 0 0)
(-1.16892e-16 -9.97462e-17 0)
(-1.02313e-17 -3.77301e-16 0)
(-4.74766e-17 -1.36609e-16 0)
(1.93585e-16 0 0)
(5.61121e-17 1.51788e-17 0)
(-1.76607e-16 -2.23345e-16 0)
(-1.86214e-17 -4.33679e-17 0)
(4.19182e-19 -1.0842e-16 0)
(-4.39259e-18 0 0)
(-1.28388e-18 1.17093e-16 0)
(5.70501e-19 0 0)
(1.10103e-17 0 0)
(-1.11444e-21 0 0)
(-7.6973e-18 0 0)
(-9.39866e-17 0 0)
(5.612e-14 -3.68627e-17 0)
(6.26417e-10 -1.5439e-15 0)
(6.57052e-07 -2.95119e-15 0)
(8.79454e-05 1.46161e-15 0)
(0.00220266 -9.12427e-16 0)
(0.0159962 2.42576e-14 0)
(0.0521057 -3.13343e-14 0)
(0.107418 2.1094e-14 0)
(0.173251 -1.15929e-14 0)
(0.244217 -3.11521e-15 0)
(0.317969 1.94979e-14 0)
(0.393536 -1.51519e-14 0)
(0.470531 2.41392e-15 0)
(0.548902 1.91219e-15 0)
(0.628625 -2.50344e-15 0)
(0.709656 -1.80267e-15 0)
(0.79078 5.33598e-16 0)
(0.86741 -1.14436e-15 0)
(0.924849 -3.85483e-15 0)
(0.943839 -3.92039e-15 0)
(0.923171 -1.50074e-15 0)
(0.925263 -2.17309e-15 0)
(0.927046 1.38971e-15 0)
(0.927628 1.89489e-16 0)
(0.927963 -1.32839e-15 0)
(0.928284 2.14378e-16 0)
(0.930086 -4.88992e-15 0)
(0.931924 -3.52269e-15 0)
(0.920894 2.67374e-16 0)
(0.92489 3.49147e-15 0)
(0.936726 4.26647e-15 0)
(0.942233 -2.90888e-16 0)
(0.938149 1.42851e-15 0)
(0.894975 -1.24685e-15 0)
(0.674178 2.09143e-15 0)
(0.200168 3.6642e-15 0)
(0.00721186 -1.23153e-15 0)
(1.9499e-05 1.9602e-15 0)
(2.88836e-09 1.30104e-17 0)
(7.58271e-14 1.12757e-16 0)
(3.08644e-17 -5.20415e-17 0)
(8.56335e-17 5.20415e-17 0)
(-1.53787e-17 3.03576e-17 0)
(9.85899e-17 -8.02307e-17 0)
(2.1272e-16 1.51788e-17 0)
(8.47559e-17 4.33679e-18 0)
(4.35299e-17 7.48097e-17 0)
(1.46988e-16 2.20092e-16 0)
(2.76505e-17 3.40438e-16 0)
(-1.08453e-19 2.82976e-16 0)
(-3.38118e-17 7.80623e-17 0)
(-1.38051e-16 1.6263e-17 0)
(1.18694e-17 1.53956e-16 0)
(1.44599e-16 3.42607e-16 0)
(-1.24737e-18 1.33356e-16 0)
(-3.5035e-16 1.6263e-17 0)
(-5.80181e-16 8.23991e-17 0)
(-4.19657e-16 -8.13149e-17 0)
(-1.31035e-16 1.51788e-17 0)
(1.08797e-16 -2.34187e-16 0)
(3.3055e-16 -2.39608e-16 0)
(3.40552e-16 3.25259e-17 0)
(8.29845e-17 3.01407e-16 0)
(-2.27915e-16 2.02745e-16 0)
(-4.5454e-16 -9.43252e-17 0)
(-4.07497e-16 -3.10081e-16 0)
(-3.04195e-16 -2.61292e-16 0)
(-3.81638e-16 -3.64291e-16 0)
(0 0 0)
(7.70544e-17 -2.81892e-17 0)
(1.16553e-16 -3.64291e-16 0)
(-5.67014e-17 -6.85213e-16 0)
(-2.13369e-16 -3.72964e-16 0)
(-5.92921e-17 -1.51788e-17 0)
(8.74608e-17 0 0)
(4.21831e-17 0 0)
(-5.0358e-17 0 0)
(1.26026e-16 0 0)
(4.07794e-16 0 0)
(1.08745e-18 1.38777e-16 0)
(-3.49819e-16 0 0)
(-5.82929e-17 -5.20415e-17 0)
(1.71794e-16 0 0)
(2.48868e-17 -9.32411e-17 0)
(-2.28577e-16 0 0)
(-1.0406e-16 0 0)
(-1.77828e-17 -1.14925e-16 0)
(-9.15113e-18 0 0)
(1.81675e-16 0 0)
(3.46734e-18 -9.32411e-17 0)
(-1.61295e-16 -4.55363e-17 0)
(-1.7794e-17 0 0)
(1.54742e-18 0 0)
(-8.25403e-18 0 0)
(-2.69089e-18 0 0)
(3.00025e-19 0 0)
(-5.02102e-18 0 0)
(-6.71803e-20 0 0)
(-3.54202e-17 0 0)
(-2.08894e-16 0 0)
(5.57612e-14 -2.12503e-16 0)
(6.26416e-10 -6.09319e-16 0)
(6.57052e-07 -1.53739e-15 0)
(8.79454e-05 -4.46289e-15 0)
(0.00220266 2.22024e-15 0)
(0.0159962 1.16914e-14 0)
(0.0521057 -1.53929e-14 0)
(0.107418 8.41407e-15 0)
(0.173251 -5.59384e-15 0)
(0.244217 -6.56927e-15 0)
(0.317969 1.4962e-14 0)
(0.393536 -1.12947e-14 0)
(0.470531 7.55375e-16 0)
(0.548902 1.80625e-15 0)
(0.628625 5.15722e-16 0)
(0.709656 -2.10174e-15 0)
(0.79078 2.37562e-15 0)
(0.86741 -2.19635e-15 0)
(0.924849 8.54414e-16 0)
(0.943839 1.51435e-15 0)
(0.923171 -5.90482e-16 0)
(0.925263 -3.15623e-16 0)
(0.927046 1.18839e-15 0)
(0.927628 -2.61319e-16 0)
(0.927963 -1.35184e-15 0)
(0.928284 2.25755e-16 0)
(0.930086 -3.07452e-15 0)
(0.931924 -2.57458e-15 0)
(0.920894 -9.7099e-16 0)
(0.92489 2.42808e-15 0)
(0.936726 2.63089e-15 0)
(0.942233 5.23802e-17 0)
(0.938149 4.93012e-16 0)
(0.894975 -6.62771e-16 0)
(0.674178 -5.1292e-16 0)
(0.200168 1.28192e-15 0)
(0.00721186 -2.26265e-17 0)
(1.9499e-05 4.77039e-16 0)
(2.88836e-09 7.04729e-16 0)
(7.56797e-14 1.6263e-17 0)
(-1.39734e-18 -3.57785e-17 0)
(6.28118e-17 -1.01915e-16 0)
(-3.89254e-17 -3.79469e-17 0)
(1.11853e-16 -2.27682e-17 0)
(2.38362e-16 0 0)
(7.8164e-17 0 0)
(9.18018e-17 2.1684e-18 0)
(2.04873e-16 0 0)
(6.13659e-17 0 0)
(-9.19432e-19 0 0)
(-1.3174e-17 0 0)
(-1.25518e-16 0 0)
(6.73148e-17 1.0842e-17 0)
(2.31857e-16 1.76724e-16 0)
(2.46062e-17 0 0)
(-3.45539e-16 0 0)
(-5.97397e-16 0 0)
(-4.04284e-16 0 0)
(-2.3086e-16 -1.6263e-17 0)
(3.16456e-17 -9.43252e-17 0)
(3.44608e-16 -9.8662e-17 0)
(4.30121e-16 0 0)
(1.60668e-16 0 0)
(-2.74101e-16 0 0)
(-5.37405e-16 5.74625e-17 0)
(-3.93462e-16 -9.97462e-17 0)
(-2.04845e-16 -8.78201e-17 0)
(-1.84314e-16 -1.66967e-16 0)
(1.64798e-16 1.99492e-16 0)
(1.5014e-16 0 0)
(-1.33045e-16 -1.38777e-16 0)
(-7.42482e-17 -3.66459e-16 0)
(-1.105e-17 -1.06251e-16 0)
(4.24214e-17 0 0)
(2.79173e-16 6.72203e-17 0)
(8.45691e-17 2.45029e-16 0)
(-8.56158e-17 1.2143e-16 0)
(1.37973e-16 -2.1684e-18 0)
(4.20046e-16 0 0)
(4.97809e-17 0 0)
(-3.18641e-16 0 0)
(-3.02965e-17 -7.37255e-17 0)
(1.98373e-16 0 0)
(2.98511e-17 9.32411e-17 0)
(-2.26325e-16 6.93887e-17 0)
(-2.06299e-16 0 0)
(-5.05062e-17 0 0)
(2.46157e-17 0 0)
(2.21177e-16 0 0)
(2.09949e-18 9.32411e-17 0)
(-1.9529e-16 0 0)
(-1.84881e-17 0 0)
(1.41222e-18 0 0)
(-4.54941e-17 0 0)
(-1.78036e-17 0 0)
(-3.66956e-18 0 0)
(-4.93648e-17 0 0)
(-1.02457e-18 0 0)
(-9.02668e-17 0 0)
(-2.88592e-16 -1.60461e-16 0)
(5.57589e-14 -5.61615e-16 0)
(6.26416e-10 2.08166e-16 0)
(6.57052e-07 -1.56558e-15 0)
(8.79454e-05 -5.03539e-15 0)
(0.00220266 1.26436e-15 0)
(0.0159962 1.94966e-15 0)
(0.0521057 2.83353e-17 0)
(0.107418 -1.71158e-15 0)
(0.173251 -2.95989e-15 0)
(0.244217 -6.25855e-15 0)
(0.317969 7.37732e-15 0)
(0.393536 -6.53436e-15 0)
(0.470531 -2.04444e-15 0)
(0.548902 -1.23948e-15 0)
(0.628625 1.37684e-15 0)
(0.709656 -2.51695e-15 0)
(0.79078 3.80411e-15 0)
(0.86741 -2.75893e-16 0)
(0.924849 4.46155e-15 0)
(0.943839 3.38654e-15 0)
(0.923171 -2.67538e-16 0)
(0.925263 6.48746e-16 0)
(0.927046 -8.50818e-16 0)
(0.927628 -5.75617e-16 0)
(0.927963 -1.14283e-15 0)
(0.928284 -3.27078e-17 0)
(0.930086 -2.54249e-15 0)
(0.931924 -2.62888e-15 0)
(0.920894 -1.9347e-15 0)
(0.92489 4.57259e-16 0)
(0.936726 7.12096e-16 0)
(0.942233 9.10297e-17 0)
(0.938149 -7.05324e-16 0)
(0.894975 -8.70844e-16 0)
(0.674178 -3.21317e-15 0)
(0.200168 7.61225e-16 0)
(0.00721186 2.10103e-16 0)
(1.9499e-05 -9.25889e-16 0)
(2.88836e-09 -1.9624e-16 0)
(7.57368e-14 -2.14671e-16 0)
(1.60819e-17 -1.66967e-16 0)
(7.49014e-17 -2.85144e-16 0)
(-2.69094e-17 -1.84314e-16 0)
(1.1737e-16 -4.33679e-17 0)
(2.80634e-16 -9.21569e-17 0)
(1.27674e-16 -1.31188e-16 0)
(8.33165e-18 8.67359e-18 0)
(-2.70734e-17 -1.2902e-16 0)
(-2.17805e-18 -2.64544e-16 0)
(4.43579e-17 -2.7105e-16 0)
(1.58496e-16 -2.02745e-16 0)
(4.84174e-17 -5.85467e-17 0)
(9.28029e-17 7.15571e-17 0)
(1.13296e-16 2.7105e-17 0)
(-1.14464e-18 0 0)
(-2.95234e-16 0 0)
(-5.26378e-16 8.67359e-18 0)
(-4.91884e-16 1.10588e-16 0)
(-3.05107e-16 -7.58939e-17 0)
(7.04172e-17 -1.0842e-18 0)
(3.86593e-16 0 0)
(4.35034e-16 -8.23991e-17 0)
(2.48912e-16 -2.01661e-16 0)
(-8.2214e-17 1.0842e-17 0)
(-4.03645e-16 2.27682e-16 0)
(-5.52639e-16 1.25767e-16 0)
(-3.84987e-16 1.71303e-16 0)
(-2.7105e-16 1.79977e-16 0)
(4.64037e-16 4.77047e-16 0)
(2.19888e-16 1.84314e-16 0)
(-2.01795e-16 1.38777e-16 0)
(-2.61012e-16 -1.36609e-16 0)
(-4.81202e-17 2.1684e-18 0)
(1.84803e-16 6.50519e-18 0)
(3.60166e-16 3.29596e-16 0)
(1.20696e-16 5.6812e-16 0)
(-6.45245e-17 3.77301e-16 0)
(1.77751e-16 1.40946e-16 0)
(3.32899e-16 1.36609e-16 0)
(6.69349e-17 -1.36609e-16 0)
(-2.38336e-16 -7.80623e-17 0)
(-2.61985e-17 -2.68881e-16 0)
(2.10042e-16 -6.72203e-17 0)
(3.19227e-17 2.60208e-17 0)
(-2.42001e-16 3.01407e-16 0)
(-3.5092e-16 1.2143e-16 0)
(-1.08231e-16 0 0)
(6.11144e-17 0 0)
(2.37113e-16 0 0)
(-3.57043e-18 -3.03576e-17 0)
(-1.94584e-16 0 0)
(-1.04937e-17 0 0)
(-1.89541e-17 0 0)
(-1.55758e-16 0 0)
(-6.71883e-17 0 0)
(-1.95878e-17 0 0)
(-1.38822e-16 0 0)
(-8.30155e-18 0 0)
(-1.23293e-16 0 0)
(-3.73614e-16 8.67359e-18 0)
(5.49703e-14 1.90819e-16 0)
(6.26418e-10 2.0448e-15 0)
(6.57052e-07 -2.17707e-15 0)
(8.79454e-05 2.2553e-16 0)
(0.00220266 -5.17042e-15 0)
(0.0159962 -2.09693e-15 0)
(0.0521057 4.2503e-15 0)
(0.107418 -2.82529e-15 0)
(0.173251 -3.54004e-15 0)
(0.244217 -1.93127e-15 0)
(0.317969 -7.79345e-16 0)
(0.393536 -8.26553e-17 0)
(0.470531 -3.84749e-15 0)
(0.548902 -4.4759e-15 0)
(0.628625 1.49673e-15 0)
(0.709656 -2.6259e-15 0)
(0.79078 2.88588e-15 0)
(0.86741 2.44825e-15 0)
(0.924849 4.07373e-15 0)
(0.943839 2.71156e-15 0)
(0.923171 -3.83734e-16 0)
(0.925263 1.78843e-15 0)
(0.927046 -2.70345e-15 0)
(0.927628 -2.64862e-15 0)
(0.927963 -5.17825e-16 0)
(0.928284 -2.11036e-15 0)
(0.930086 -3.38217e-15 0)
(0.931924 -1.01293e-15 0)
(0.920894 -2.12298e-15 0)
(0.92489 -8.68437e-16 0)
(0.936726 -2.12457e-15 0)
(0.942233 6.91622e-17 0)
(0.938149 -1.01103e-15 0)
(0.894975 -1.1613e-15 0)
(0.674178 -3.24092e-15 0)
(0.200168 -2.89652e-15 0)
(0.00721186 1.7918e-15 0)
(1.9499e-05 -3.24386e-15 0)
(2.88836e-09 -4.73795e-16 0)
(7.58814e-14 -5.65951e-16 0)
(-2.89545e-17 -2.0925e-16 0)
(8.50649e-17 -1.07336e-16 0)
(-1.65713e-17 -8.13149e-17 0)
(6.17582e-17 -8.99885e-17 0)
(1.95985e-16 -2.25513e-16 0)
(1.12119e-16 -3.06828e-16 0)
(1.05206e-17 -2.03829e-16 0)
(-1.12116e-16 -3.28512e-16 0)
(-2.74373e-19 -4.88973e-16 0)
(8.44805e-17 -4.94394e-16 0)
(2.30033e-16 -4.16332e-16 0)
(1.1456e-16 -2.49366e-16 0)
(1.43354e-16 -7.15571e-17 0)
(1.37828e-16 0 0)
(3.77858e-18 0 0)
(-9.2465e-17 -6.72203e-17 0)
(-3.5045e-16 7.80623e-17 0)
(-5.23872e-16 2.8406e-16 0)
(-2.97245e-16 1.30104e-16 0)
(3.00237e-17 1.19262e-17 0)
(3.20966e-16 9.10727e-17 0)
(4.71599e-16 -2.36355e-16 0)
(3.23673e-16 -4.04406e-16 0)
(9.40137e-17 -1.65882e-16 0)
(-3.25517e-16 5.09573e-17 0)
(-5.01144e-16 2.81892e-16 0)
(-3.80482e-16 3.94648e-16 0)
(-4.82468e-16 3.9248e-16 0)
(6.7654e-16 2.51534e-16 0)
(2.8729e-16 1.04083e-16 0)
(-2.07693e-16 9.10727e-17 0)
(-3.22954e-16 1.71303e-16 0)
(1.23946e-17 9.54094e-17 0)
(3.52054e-16 2.62376e-16 0)
(5.43002e-16 1.64798e-16 0)
(1.84194e-16 2.9707e-16 0)
(-2.46031e-16 2.01661e-16 0)
(2.74234e-16 3.18754e-16 0)
(-2.94608e-17 1.51788e-17 0)
(-1.56996e-16 -2.53702e-16 0)
(-1.94433e-16 -4.33679e-18 0)
(-6.47679e-17 9.10727e-17 0)
(2.42109e-16 2.1684e-18 0)
(2.44513e-16 -1.8865e-16 0)
(-6.70896e-17 1.01915e-16 0)
(-4.33196e-16 2.34187e-16 0)
(-1.60348e-16 8.45675e-17 0)
(7.19529e-17 1.90819e-16 0)
(-1.62638e-16 2.81892e-17 0)
(-1.25822e-16 -2.45029e-16 0)
(1.40769e-16 3.68627e-17 0)
(2.06684e-16 2.60208e-16 0)
(-1.04047e-16 1.17093e-16 0)
(-3.24607e-16 2.38524e-17 0)
(-1.5587e-16 0 0)
(-4.16894e-17 0 0)
(-2.1218e-16 2.60208e-17 0)
(-3.66935e-17 -4.33679e-18 0)
(1.39757e-17 2.60208e-17 0)
(-1.35307e-16 2.08166e-16 0)
(5.65711e-14 7.82791e-16 0)
(6.26419e-10 2.00794e-15 0)
(6.57052e-07 -1.73905e-15 0)
(8.79454e-05 5.21972e-15 0)
(0.00220266 -1.00975e-14 0)
(0.0159962 -2.51896e-15 0)
(0.0521057 -1.30569e-15 0)
(0.107418 2.08717e-15 0)
(0.173251 -6.36779e-15 0)
(0.244217 3.2237e-15 0)
(0.317969 -1.03817e-14 0)
(0.393536 4.04093e-15 0)
(0.470531 -4.54046e-15 0)
(0.548902 -3.77494e-15 0)
(0.628625 -2.10285e-16 0)
(0.709656 -2.9373e-15 0)
(0.79078 2.66466e-15 0)
(0.86741 -9.38037e-16 0)
(0.924849 3.58721e-15 0)
(0.943839 4.81563e-15 0)
(0.923171 2.80772e-15 0)
(0.925263 1.44767e-16 0)
(0.927046 -8.29659e-16 0)
(0.927628 -2.80105e-15 0)
(0.927963 2.26758e-16 0)
(0.928284 -2.83349e-15 0)
(0.930086 -2.86617e-15 0)
(0.931924 -4.72962e-16 0)
(0.920894 -6.97793e-16 0)
(0.92489 -1.51457e-15 0)
(0.936726 -3.27829e-15 0)
(0.942233 -1.0176e-15 0)
(0.938149 -1.80618e-15 0)
(0.894975 -1.64716e-15 0)
(0.674178 -7.9367e-16 0)
(0.200168 -7.00861e-15 0)
(0.00721186 1.37806e-15 0)
(1.9499e-05 -1.95803e-15 0)
(2.88836e-09 -5.10657e-16 0)
(7.64113e-14 -3.1767e-16 0)
(1.2347e-16 -6.39677e-17 0)
(7.50372e-19 4.11995e-17 0)
(-1.07131e-16 -6.93887e-17 0)
(-5.83045e-17 3.25259e-17 0)
(9.04687e-17 -8.99885e-17 0)
(1.6875e-16 -1.34441e-16 0)
(-7.65717e-18 -8.45675e-17 0)
(-1.68142e-16 -2.01661e-16 0)
(6.08617e-18 -2.27682e-16 0)
(1.30757e-16 -2.6346e-16 0)
(2.99221e-16 -2.19008e-16 0)
(1.97104e-16 -2.46113e-16 0)
(2.39926e-16 -9.64936e-17 0)
(1.66294e-16 0 0)
(1.92174e-17 -9.43252e-17 0)
(4.56221e-17 -2.39608e-16 0)
(-5.22296e-17 -7.58939e-18 0)
(-2.89064e-16 2.30934e-16 0)
(-2.71633e-16 3.36101e-16 0)
(-6.99144e-17 1.36609e-16 0)
(1.87738e-16 5.42099e-18 0)
(2.49736e-16 -1.51788e-16 0)
(4.20251e-16 -2.5045e-16 0)
(2.19935e-16 -6.93887e-17 0)
(-1.40883e-16 -1.05167e-16 0)
(-3.60926e-16 1.39862e-16 0)
(-4.49797e-16 2.0925e-16 0)
(-6.13656e-16 2.66713e-16 0)
(4.74879e-16 -2.1684e-18 0)
(2.00283e-16 2.55871e-16 0)
(-1.33528e-16 2.73218e-16 0)
(-9.94422e-17 4.53195e-16 0)
(1.71266e-16 3.5128e-16 0)
(4.20334e-16 5.94141e-16 0)
(3.58284e-16 3.46943e-16 0)
(4.33207e-17 1.23599e-16 0)
(-6.34157e-17 1.97324e-16 0)
(-9.21742e-17 -5.20415e-17 0)
(-3.24289e-16 -3.05744e-16 0)
(-7.56289e-17 -5.63783e-17 0)
(-2.06774e-16 2.38524e-16 0)
(-4.14833e-18 4.597e-16 0)
(2.26458e-16 2.34187e-16 0)
(9.16752e-17 -6.50519e-18 0)
(2.01555e-17 1.40946e-16 0)
(-2.42703e-16 4.01153e-16 0)
(-4.78215e-17 3.01407e-16 0)
(6.30454e-17 4.90058e-16 0)
(-1.74686e-16 2.53702e-16 0)
(-1.22915e-16 6.28835e-17 0)
(1.46885e-16 2.58039e-16 0)
(2.1524e-16 5.8113e-16 0)
(-1.45471e-16 3.75133e-16 0)
(-5.14606e-16 2.27682e-16 0)
(-2.5455e-16 2.81892e-17 0)
(-4.8415e-17 6.50519e-17 0)
(-2.33377e-16 6.50519e-18 0)
(-7.08066e-17 -1.77809e-16 0)
(1.14724e-16 0 0)
(9.08287e-17 0 0)
(5.63328e-14 -3.98985e-16 0)
(6.26421e-10 1.35525e-15 0)
(6.57052e-07 -1.7087e-15 0)
(8.79454e-05 3.22681e-15 0)
(0.00220266 -5.75481e-15 0)
(0.0159962 -1.46829e-15 0)
(0.0521057 -4.99268e-15 0)
(0.107418 6.87959e-15 0)
(0.173251 -7.36197e-15 0)
(0.244217 6.05498e-15 0)
(0.317969 -1.77304e-14 0)
(0.393536 4.76186e-15 0)
(0.470531 -4.04947e-15 0)
(0.548902 -2.9345e-15 0)
(0.628625 -2.9478e-15 0)
(0.709656 -4.63514e-15 0)
(0.79078 2.82696e-15 0)
(0.86741 2.78292e-16 0)
(0.924849 3.27942e-15 0)
(0.943839 4.37254e-15 0)
(0.923171 3.19779e-15 0)
(0.925263 -4.14255e-16 0)
(0.927046 3.00062e-16 0)
(0.927628 -1.40443e-15 0)
(0.927963 -1.01421e-15 0)
(0.928284 -2.1676e-15 0)
(0.930086 -4.58931e-16 0)
(0.931924 -1.60325e-15 0)
(0.920894 2.83387e-16 0)
(0.92489 -1.2305e-15 0)
(0.936726 -5.36364e-16 0)
(0.942233 -1.51598e-15 0)
(0.938149 -3.32605e-15 0)
(0.894975 -2.87236e-15 0)
(0.674178 6.27113e-16 0)
(0.200168 -4.14342e-15 0)
(0.00721186 -1.42116e-15 0)
(1.9499e-05 1.80082e-15 0)
(2.88836e-09 -2.92734e-17 0)
(7.63792e-14 3.7188e-16 0)
(1.49948e-16 5.09573e-17 0)
(-3.83684e-18 -5.52941e-17 0)
(-1.07276e-16 5.96309e-17 0)
(4.43375e-17 1.65882e-16 0)
(2.31063e-16 1.84314e-16 0)
(1.03687e-16 1.84314e-17 0)
(-8.8248e-17 -7.48097e-17 0)
(-5.79681e-17 9.21569e-17 0)
(1.02862e-16 1.73472e-16 0)
(1.96328e-18 7.15571e-17 0)
(8.49937e-17 6.28835e-17 0)
(2.29748e-16 -4.98731e-17 0)
(2.73339e-16 0 0)
(8.02293e-17 0 0)
(-8.73739e-17 -1.48535e-16 0)
(7.08672e-17 -5.63783e-17 0)
(1.55593e-16 0 0)
(-2.59313e-17 -1.95156e-17 0)
(-1.77497e-16 1.4203e-16 0)
(-1.19263e-16 3.79469e-17 0)
(6.368e-17 1.27935e-16 0)
(1.79336e-16 1.76724e-16 0)
(3.21897e-16 7.80623e-17 0)
(1.19415e-16 -1.35525e-16 0)
(-2.24954e-16 -2.11419e-16 0)
(-4.16325e-16 -1.84314e-17 0)
(-4.08569e-16 1.40946e-17 0)
(-5.20415e-16 1.17093e-16 0)
(6.8955e-16 -2.27682e-16 0)
(3.08306e-16 -9.97462e-17 0)
(-1.21269e-16 -6.50519e-17 0)
(-1.51297e-16 1.79977e-16 0)
(2.00693e-16 1.71303e-16 0)
(5.22709e-16 2.79723e-16 0)
(1.94222e-16 -3.68627e-17 0)
(-2.51303e-17 -3.3827e-16 0)
(-2.83865e-16 -2.01661e-16 0)
(-4.55407e-16 -4.18501e-16 0)
(-1.12164e-16 -8.67359e-17 0)
(1.71938e-16 2.23345e-16 0)
(-2.43833e-17 5.63783e-17 0)
(-2.13315e-16 2.49366e-16 0)
(-3.25051e-17 -4.33679e-18 0)
(2.73407e-16 -5.20415e-17 0)
(1.95301e-16 -1.64798e-16 0)
(1.22004e-17 1.73472e-17 0)
(3.10693e-18 4.33679e-18 0)
(3.00323e-17 7.15571e-17 0)
(-1.52906e-16 -1.06251e-16 0)
(-9.70969e-17 4.33679e-18 0)
(1.46754e-16 8.02307e-17 0)
(4.71863e-17 1.99492e-16 0)
(-3.30734e-16 8.67359e-18 0)
(-7.07765e-16 6.50519e-18 0)