/*--------------------------------*- C++ -*----------------------------------*\
| =========                 |                                                 |
| \\      /  F ield         | OpenFOAM: The Open Source CFD Toolbox           |
|  \\    /   O peration     | Version:  4.1                                   |
|   \\  /    A nd           | Web:      www.OpenFOAM.org                      |
|    \\/     M anipulation  |                                                 |
\*---------------------------------------------------------------------------*/
FoamFile
{
    version     2.0;
    format      ascii;
    class       volVectorField;
    location    "0.17";
    object      U;
}
// * * * * * * * * * * * * * * * * * * * * * * * * * * * * * * * * * * * * * //

dimensions      [0 1 -1 0 0 0 0];

internalField   nonuniform List<vector> 
10000
(
(0 0 0)
(8.22977e-17 0 0)
(2.32656e-16 0 0)
(5.54706e-17 1.25767e-16 0)
(-1.00657e-16 0 0)
(-1.23139e-16 0 0)
(-1.59232e-16 0 0)
(-1.88131e-17 0 0)
(-7.27907e-29 0 0)
(1.18162e-16 1.2143e-16 0)
(3.3157e-16 0 0)
(2.46225e-17 -1.49619e-16 0)
(-2.97795e-16 0 0)
(-8.05195e-18 0 0)
(1.66577e-16 0 0)
(-1.96216e-17 1.27935e-16 0)
(-2.06542e-16 0 0)
(-5.27398e-17 0 0)
(-2.84226e-18 0 0)
(-4.79151e-17 0 0)
(8.41999e-20 0 0)
(2.57987e-17 9.75778e-17 0)
(8.02904e-18 0 0)
(8.82444e-17 0 0)
(-2.95604e-17 0 0)
(-1.70533e-16 0 0)
(-3.06288e-16 -1.17093e-16 0)
(-2.398e-17 8.67359e-17 0)
(2.8332e-16 0 0)
(3.89193e-17 1.36609e-16 0)
(-1.76082e-16 0 0)
(-1.25321e-19 -1.47451e-16 0)
(1.34976e-16 -2.1684e-18 0)
(4.53396e-15 0 0)
(8.87844e-11 5.1391e-16 0)
(1.65452e-07 4.04406e-15 0)
(3.58106e-05 -2.819e-16 0)
(0.00130179 7.77142e-16 0)
(0.0122206 1.47674e-15 0)
(0.0464142 1.74434e-14 0)
(0.103921 1.27703e-14 0)
(0.175085 1.87031e-14 0)
(0.252903 9.67647e-15 0)
(0.334236 1.1039e-14 0)
(0.417825 8.33555e-15 0)
(0.503283 -5.5282e-15 0)
(0.590452 -1.0052e-14 0)
(0.679662 1.34497e-15 0)
(0.769428 1.61704e-14 0)
(0.855844 1.10719e-15 0)
(0.92131 2.2322e-16 0)
(0.94576 3.02466e-15 0)
(0.923409 4.01313e-15 0)
(0.9255 6.09549e-15 0)
(0.927062 4.31951e-15 0)
(0.927425 4.42471e-15 0)
(0.928034 3.33712e-15 0)
(0.930189 3.46978e-15 0)
(0.9306 2.66432e-15 0)
(0.920721 1.79155e-15 0)
(0.934137 2.991e-15 0)
(0.946253 1.9644e-15 0)
(0.94544 -2.53051e-16 0)
(0.916404 -6.31511e-16 0)
(0.749121 -7.16062e-15 0)
(0.297605 -4.50917e-15 0)
(0.0177833 -7.0583e-16 0)
(8.48793e-05 3.45833e-16 0)
(2.39528e-08 0 0)
(6.8451e-13 1.65882e-16 0)
(-7.14784e-17 0 0)
(-1.78923e-16 0 0)
(-9.67365e-18 1.64798e-16 0)
(-7.04641e-17 4.52111e-16 0)
(-1.7968e-16 1.99492e-16 0)
(4.72699e-17 0 0)
(2.57976e-16 0 0)
(5.88989e-17 0 0)
(-1.31763e-16 9.54094e-17 0)
(5.87407e-17 0 0)
(2.59433e-16 0 0)
(5.53817e-17 0 0)
(-1.48673e-16 0 0)
(5.25054e-17 0 0)
(2.43174e-16 9.64936e-17 0)
(7.0866e-17 0 0)
(-1.39311e-16 0 0)
(-3.45076e-17 0 0)
(-3.13795e-17 0 0)
(-1.10848e-16 0 0)
(-1.87798e-16 -6.50519e-18 0)
(-3.4268e-16 0 0)
(-1.39396e-16 1.0842e-18 0)
(6.12953e-17 0 0)
(2.64075e-16 0 0)
(5.62547e-17 0 0)
(-1.47947e-16 8.45675e-17 0)
(-1.42908e-16 0 0)
(-5.66723e-17 0 0)
(0 0 0)
(0 0 0)
(1.25533e-16 0 0)
(2.53889e-16 1.25767e-16 0)
(6.49696e-17 3.10081e-16 0)
(-1.23227e-16 1.25767e-16 0)
(-2.44589e-16 2.47197e-16 0)
(-2.42864e-16 4.98731e-17 0)
(-3.3283e-17 0 0)
(-3.3587e-25 0 0)
(1.39385e-16 0 0)
(3.97194e-16 0 0)
(7.41873e-17 0 0)
(-2.57881e-16 0 0)
(1.41036e-17 0 0)
(1.51457e-16 1.27935e-16 0)
(-3.49227e-17 3.12249e-16 0)
(-2.2114e-16 1.27935e-16 0)
(-9.93282e-17 0 0)
(-1.50882e-17 0 0)
(-1.23463e-16 0 0)
(4.37526e-19 0 0)
(4.95638e-17 2.1684e-18 0)
(2.36826e-17 0 0)
(1.19339e-16 9.10727e-17 0)
(-7.89276e-17 2.58039e-16 0)
(-2.75546e-16 6.28835e-17 0)
(-2.3675e-16 6.72203e-17 0)
(-1.17156e-17 2.7105e-16 0)
(1.92866e-16 8.89043e-17 0)
(4.85613e-17 0 0)
(-1.82623e-16 0 0)
(-6.59237e-19 8.02307e-17 0)
(1.14376e-16 5.29629e-32 0)
(4.68984e-15 1.73472e-17 0)
(8.87855e-11 1.56992e-15 0)
(1.65452e-07 3.82505e-15 0)
(3.58106e-05 4.66219e-15 0)
(0.00130179 1.49567e-15 0)
(0.0122206 2.71027e-15 0)
(0.0464142 2.08914e-14 0)
(0.103921 -2.03559e-14 0)
(0.175085 3.11348e-14 0)
(0.252903 9.86544e-15 0)
(0.334236 -3.25352e-15 0)
(0.417825 7.41842e-15 0)
(0.503283 1.72143e-15 0)
(0.590452 6.71115e-16 0)
(0.679662 -1.7214e-15 0)
(0.769428 7.37068e-15 0)
(0.855844 3.51955e-15 0)
(0.92131 5.04673e-15 0)
(0.94576 4.37571e-15 0)
(0.923409 2.63862e-15 0)
(0.9255 7.10432e-15 0)
(0.927062 4.66599e-15 0)
(0.927425 3.61716e-15 0)
(0.928034 2.70561e-15 0)
(0.930189 1.27456e-15 0)
(0.9306 3.43122e-16 0)
(0.920721 2.06326e-15 0)
(0.934137 4.92989e-15 0)
(0.946253 3.2949e-15 0)
(0.94544 2.38294e-15 0)
(0.916404 1.58787e-15 0)
(0.749121 -9.8234e-16 0)
(0.297605 -1.25103e-15 0)
(0.0177833 -1.62309e-16 0)
(8.48793e-05 6.39628e-17 0)
(2.39528e-08 -2.8406e-16 0)
(6.84002e-13 3.41522e-16 0)
(-2.45432e-17 2.05998e-17 0)
(-1.04059e-16 3.03576e-17 0)
(1.04356e-17 1.4203e-16 0)
(-7.71636e-17 2.55871e-16 0)
(-1.80143e-16 1.53956e-16 0)
(2.40853e-17 1.24683e-16 0)
(2.10308e-16 2.1684e-18 0)
(9.84062e-18 2.81892e-17 0)
(-1.59565e-16 1.98408e-16 0)
(1.18193e-17 2.81892e-17 0)
(2.13258e-16 0 0)
(4.05644e-17 0 0)
(-1.50977e-16 2.05998e-17 0)
(4.15818e-17 1.45283e-16 0)
(2.48061e-16 1.99492e-16 0)
(7.03663e-17 2.27682e-17 0)
(-1.64875e-16 0 0)
(-6.3531e-17 0 0)
(-6.31676e-17 0 0)
(-1.6067e-16 -6.50519e-18 0)
(-1.2485e-16 -5.20415e-17 0)
(-2.35468e-16 7.91465e-17 0)
(-1.15362e-16 2.01661e-16 0)
(7.33277e-17 3.90311e-17 0)
(2.78415e-16 0 0)
(6.34645e-17 1.95156e-17 0)
(-1.61319e-16 1.87566e-16 0)
(-2.27185e-16 1.78893e-16 0)
(-1.37595e-16 1.12757e-16 0)
(-7.69781e-17 2.07082e-16 0)
(0 0 0)
(1.90348e-16 0 0)
(4.87196e-16 0 0)
(8.58343e-17 8.45675e-17 0)
(-3.56479e-16 3.44775e-16 0)
(-3.24741e-16 5.72457e-16 0)
(-2.61241e-16 2.40692e-16 0)
(-3.91754e-17 0 0)
(-2.38561e-22 0 0)
(1.84231e-16 0 0)
(4.77131e-16 0 0)
(1.47045e-16 2.1684e-18 0)
(-1.34064e-16 1.51788e-17 0)
(8.6741e-17 2.25513e-16 0)
(3.11098e-16 7.37255e-17 0)
(-4.90604e-17 7.37255e-17 0)
(-4.05303e-16 0 0)
(-1.48424e-16 0 0)
(-4.94074e-17 1.01915e-16 0)
(-2.27175e-16 0 0)
(1.20546e-18 0 0)
(1.4521e-16 0 0)
(5.80377e-17 8.02307e-17 0)
(1.4596e-16 3.3827e-16 0)
(-1.01487e-16 5.85467e-16 0)
(-3.79868e-16 3.05744e-16 0)
(-3.70784e-16 0 0)
(-2.52003e-17 4.98731e-17 0)
(2.99773e-16 0 0)
(7.86548e-17 0 0)
(-5.03098e-21 1.25767e-16 0)
(-2.28091e-18 3.9248e-16 0)
(6.8233e-18 1.92987e-16 0)
(4.47778e-15 1.53956e-16 0)
(8.87872e-11 1.7087e-15 0)
(1.65452e-07 1.40078e-15 0)
(3.58106e-05 1.33425e-14 0)
(0.00130179 3.42116e-15 0)
(0.0122206 -2.80448e-16 0)
(0.0464142 2.04922e-14 0)
(0.103921 -2.74082e-14 0)
(0.175085 2.76531e-14 0)
(0.252903 8.84637e-15 0)
(0.334236 -1.22754e-14 0)
(0.417825 6.67502e-15 0)
(0.503283 8.63253e-17 0)
(0.590452 2.68813e-15 0)
(0.679662 -2.4473e-15 0)
(0.769428 5.98956e-15 0)
(0.855844 1.221e-15 0)
(0.92131 1.69212e-15 0)
(0.94576 3.35432e-15 0)
(0.923409 2.03083e-15 0)
(0.9255 8.3922e-15 0)
(0.927062 3.97497e-15 0)
(0.927425 1.98639e-15 0)
(0.928034 1.04887e-15 0)
(0.930189 5.32232e-16 0)
(0.9306 -4.50811e-16 0)
(0.920721 -9.00859e-17 0)
(0.934137 3.51956e-15 0)
(0.946253 3.26457e-15 0)
(0.94544 3.60255e-15 0)
(0.916404 5.01311e-15 0)
(0.749121 3.68794e-15 0)
(0.297605 1.33893e-15 0)
(0.0177833 1.83345e-15 0)
(8.48793e-05 -1.12206e-15 0)
(2.39528e-08 -8.79285e-16 0)
(6.83828e-13 6.20161e-16 0)
(-9.48217e-17 1.68051e-16 0)
(-1.80167e-16 1.87566e-16 0)
(-3.1496e-17 1.87566e-16 0)
(3.21815e-17 7.48097e-17 0)
(-6.55071e-17 1.86482e-16 0)
(5.77862e-17 3.08997e-16 0)
(1.73589e-16 2.17924e-16 0)
(-4.80199e-21 1.07336e-16 0)
(-1.97778e-16 1.38777e-16 0)
(-7.13702e-17 2.0925e-16 0)
(1.20945e-16 1.82145e-16 0)
(1.29687e-16 1.2143e-16 0)
(2.51497e-17 2.45029e-16 0)
(1.30839e-16 3.37186e-16 0)
(1.60521e-16 1.39862e-16 0)
(-2.35606e-17 -7.91465e-17 0)
(-1.95264e-16 -3.46943e-17 0)
(-9.36565e-17 6.93887e-17 0)
(-9.4498e-17 -3.25259e-17 0)
(-1.94262e-16 7.04729e-17 0)
(-9.10143e-17 5.09573e-17 0)
(-7.53307e-17 2.38524e-16 0)
(-1.27852e-16 4.06574e-16 0)
(-2.57125e-18 2.87313e-16 0)
(1.90976e-16 1.12757e-16 0)
(1.03236e-16 -1.30104e-17 0)
(-1.04164e-16 1.74556e-16 0)
(-3.06053e-16 3.77301e-16 0)
(-2.05488e-16 2.87313e-16 0)
(-2.60208e-16 3.90311e-16 0)
(-2.1684e-18 -2.1684e-18 0)
(2.51999e-16 -2.1684e-18 0)
(5.7369e-16 -2.1684e-18 0)
(2.23493e-16 3.90311e-17 0)
(-2.16708e-16 2.86228e-16 0)
(-5.60467e-16 1.56125e-16 0)
(-2.63908e-16 -2.1684e-18 0)
(-2.17305e-17 -2.1684e-18 0)
(-3.07369e-20 0 0)
(8.5063e-17 0 0)
(3.29716e-16 -4.33679e-18 0)
(1.47382e-16 -1.71303e-16 0)
(1.91575e-16 1.84314e-16 0)
(1.28577e-16 5.37762e-16 0)
(2.09831e-16 2.55871e-16 0)
(-3.39531e-17 0 0)
(-2.57553e-16 -2.1684e-18 0)
(-3.04417e-17 1.17093e-16 0)
(-7.26935e-17 3.49112e-16 0)
(-2.54681e-16 1.73472e-16 0)
(1.63607e-18 0 0)
(2.47469e-16 1.40946e-16 0)
(6.49529e-17 3.23091e-16 0)
(2.22995e-16 1.36609e-16 0)
(-1.29512e-16 1.73472e-16 0)
(-4.76453e-16 5.63783e-17 0)
(-4.44895e-16 -4.33679e-18 0)
(-3.64393e-17 0 0)
(3.43417e-16 -2.1684e-18 0)
(9.17766e-17 0 0)
(-1.56186e-20 0 0)
(-1.86719e-17 1.25767e-16 0)
(2.58535e-17 8.67359e-18 0)
(4.32723e-15 1.12757e-16 0)
(8.87896e-11 1.39862e-15 0)
(1.65452e-07 9.17232e-16 0)
(3.58106e-05 8.54591e-15 0)
(0.00130179 1.72534e-14 0)
(0.0122206 -1.60097e-14 0)
(0.0464142 2.33582e-14 0)
(0.103921 -2.5697e-14 0)
(0.175085 1.878e-14 0)
(0.252903 1.16687e-14 0)
(0.334236 -1.78827e-14 0)
(0.417825 7.64692e-15 0)
(0.503283 7.26148e-16 0)
(0.590452 3.50706e-16 0)
(0.679662 -2.12778e-15 0)
(0.769428 1.67738e-15 0)
(0.855844 -2.93276e-15 0)
(0.92131 -3.33569e-16 0)
(0.94576 1.91194e-15 0)
(0.923409 4.61616e-15 0)
(0.9255 4.55348e-15 0)
(0.927062 2.79e-15 0)
(0.927425 8.64545e-16 0)
(0.928034 8.43188e-16 0)
(0.930189 1.26371e-15 0)
(0.9306 -2.13198e-15 0)
(0.920721 -8.01086e-16 0)
(0.934137 6.81805e-16 0)
(0.946253 1.84662e-15 0)
(0.94544 3.7628e-15 0)
(0.916404 5.8546e-15 0)
(0.749121 1.67569e-15 0)
(0.297605 9.38699e-18 0)
(0.0177833 2.76779e-15 0)
(8.48793e-05 2.98131e-16 0)
(2.39528e-08 6.40761e-16 0)
(6.83113e-13 4.57532e-16 0)
(-1.70663e-16 2.14671e-16 0)
(-2.55032e-16 3.77301e-16 0)
(-7.17579e-17 3.27428e-16 0)
(4.54709e-17 1.94071e-16 0)
(9.64352e-17 2.95986e-16 0)
(3.37634e-17 3.25259e-16 0)
(9.94563e-17 4.22837e-16 0)
(-2.57394e-17 2.61292e-16 0)
(-2.0327e-16 2.51534e-16 0)
(-3.85831e-17 4.17416e-16 0)
(1.26836e-16 4.58616e-16 0)
(2.73263e-16 3.12249e-16 0)
(2.25113e-16 4.48858e-16 0)
(8.23093e-19 4.22837e-16 0)
(-1.35352e-16 1.84314e-16 0)
(-2.37369e-17 1.95156e-17 0)
(1.78522e-17 1.0842e-16 0)
(-1.11431e-16 1.47451e-16 0)
(-1.8837e-16 2.1684e-17 0)
(-8.7796e-17 1.22514e-16 0)
(3.55619e-18 1.84314e-17 0)
(3.54454e-17 9.43252e-17 0)
(-1.55406e-16 2.82976e-16 0)
(-1.64742e-16 4.84637e-16 0)
(-1.99304e-17 3.40438e-16 0)
(-7.52198e-17 1.70219e-16 0)
(1.41112e-17 5.85467e-17 0)
(-1.36626e-16 2.07082e-16 0)
(-2.87965e-16 1.9624e-16 0)
(-4.7271e-16 1.78893e-16 0)
(-2.1684e-18 2.1684e-18 0)
(3.11578e-16 2.1684e-18 0)
(6.59335e-16 2.1684e-18 0)
(2.52034e-16 1.66967e-16 0)
(-4.51398e-16 -1.43114e-16 0)
(-5.22009e-16 -5.44268e-16 0)
(-2.07281e-16 -2.40692e-16 0)
(-3.91733e-18 2.1684e-18 0)
(-9.79441e-19 0 0)
(1.14937e-16 -2.1684e-18 0)
(3.7398e-16 -3.68627e-17 0)
(1.99909e-16 1.34441e-16 0)
(3.78098e-16 8.67359e-18 0)
(2.00163e-16 1.90819e-16 0)
(2.38093e-16 8.67359e-18 0)
(-4.77492e-17 9.10727e-17 0)
(-3.43331e-16 2.1684e-18 0)
(-7.31117e-17 2.1684e-18 0)
(-9.38034e-17 -1.51788e-17 0)
(-2.9183e-16 0 0)
(4.22424e-17 0 0)
(3.14307e-16 2.60208e-16 0)
(5.52837e-17 3.46943e-17 0)
(-3.14939e-17 -8.89043e-17 0)
(-3.12123e-17 -3.57785e-16 0)
(-2.02732e-16 -1.58293e-16 0)
(-2.03056e-16 -1.14925e-16 0)
(3.91632e-17 0 0)
(9.48628e-17 2.1684e-18 0)
(1.37962e-21 0 0)
(-4.86741e-19 0 0)
(-2.863e-17 0 0)
(6.31007e-18 0 0)
(4.87131e-15 4.55363e-17 0)
(8.87895e-11 -5.31257e-16 0)
(1.65452e-07 2.67146e-15 0)
(3.58106e-05 -1.4095e-15 0)
(0.00130179 3.46545e-14 0)
(0.0122206 -3.35333e-14 0)
(0.0464142 2.64611e-14 0)
(0.103921 -1.66846e-14 0)
(0.175085 6.73271e-15 0)
(0.252903 1.55466e-14 0)
(0.334236 -2.0608e-14 0)
(0.417825 8.00063e-15 0)
(0.503283 6.8891e-16 0)
(0.590452 -3.27662e-15 0)
(0.679662 -1.42485e-15 0)
(0.769428 -7.48287e-16 0)
(0.855844 -2.54987e-15 0)
(0.92131 -1.95002e-15 0)
(0.94576 -1.82451e-15 0)
(0.923409 2.95298e-15 0)
(0.9255 -2.23406e-15 0)
(0.927062 8.71227e-16 0)
(0.927425 1.2085e-15 0)
(0.928034 -1.05839e-16 0)
(0.930189 1.87425e-15 0)
(0.9306 -3.10946e-15 0)
(0.920721 -1.51112e-15 0)
(0.934137 7.9837e-16 0)
(0.946253 1.65099e-15 0)
(0.94544 3.68014e-15 0)
(0.916404 2.30515e-15 0)
(0.749121 2.12821e-15 0)
(0.297605 -3.10539e-15 0)
(0.0177833 6.42829e-15 0)
(8.48793e-05 2.539e-15 0)
(2.39528e-08 6.40761e-16 0)
(6.83377e-13 2.60208e-16 0)
(-2.27531e-17 6.61361e-17 0)
(-1.06782e-16 2.32018e-16 0)
(-1.53949e-17 1.2902e-16 0)
(7.56332e-17 2.0925e-16 0)
(-2.32038e-17 2.21176e-16 0)
(6.477e-17 1.20346e-16 0)
(1.56566e-16 2.22261e-16 0)
(5.20563e-17 1.48535e-16 0)
(-5.13528e-17 2.72134e-16 0)
(8.83666e-17 4.15248e-16 0)
(2.73621e-17 5.48604e-16 0)
(1.50529e-16 4.33679e-16 0)
(4.26774e-17 2.66713e-16 0)
(-9.23597e-17 2.23345e-16 0)
(-1.50364e-16 2.92734e-16 0)
(-2.81708e-17 2.43945e-16 0)
(1.56162e-17 2.88397e-16 0)
(-2.29472e-16 1.46367e-16 0)
(-3.68963e-16 1.5504e-16 0)
(-2.48596e-16 -3.57785e-17 0)
(4.75758e-19 -1.06251e-16 0)
(2.19883e-16 -1.09504e-16 0)
(1.04795e-16 -2.27682e-17 0)
(6.4516e-17 2.8406e-16 0)
(4.5381e-17 5.08489e-16 0)
(-1.46358e-16 3.78385e-16 0)
(-1.9306e-16 6.93887e-17 0)
(-2.58925e-16 -1.35525e-16 0)
(-4.04312e-16 -6.72203e-17 0)
(-5.42099e-16 -1.94071e-16 0)
(0 0 0)
(1.54676e-16 0 0)
(4.33602e-16 -4.98731e-17 0)
(9.31932e-18 -2.51534e-16 0)
(-5.42622e-16 -5.37762e-16 0)
(-2.16934e-16 -2.4286e-16 0)
(-5.88091e-17 -2.1684e-17 0)
(5.37032e-18 0 0)
(-1.02713e-17 0 0)
(1.33359e-16 2.1684e-18 0)
(3.92481e-16 1.47451e-16 0)
(2.01954e-16 3.31765e-16 0)
(-2.84997e-17 9.75778e-17 0)
(1.06459e-16 -1.58293e-16 0)
(2.97359e-16 -6.50519e-17 0)
(-5.79081e-17 -9.32411e-17 0)
(-4.09044e-16 0 0)
(-1.16769e-16 -9.97462e-17 0)
(-7.31793e-18 -3.77301e-16 0)
(-5.25648e-17 -1.36609e-16 0)
(1.85181e-16 0 0)
(5.33314e-17 1.51788e-17 0)
(-1.74403e-16 -2.23345e-16 0)
(-1.89769e-17 -4.33679e-17 0)
(2.16714e-19 -1.04083e-16 0)
(-4.30491e-18 0 0)
(-6.06678e-19 1.19262e-16 0)
(5.14841e-19 0 0)
(6.31655e-18 0 0)
(-8.9724e-22 0 0)
(-5.68629e-18 0 0)
(-1.00521e-16 0 0)
(1.1885e-17 0 0)
(4.68967e-15 -1.25767e-16 0)
(8.87881e-11 -9.80115e-16 0)
(1.65452e-07 1.82145e-16 0)
(3.58106e-05 -3.03585e-15 0)
(0.00130179 2.90147e-14 0)
(0.0122206 -2.8391e-14 0)
(0.0464142 1.72167e-14 0)
(0.103921 -9.39759e-15 0)
(0.175085 -3.66574e-15 0)
(0.252903 1.78709e-14 0)
(0.334236 -2.02394e-14 0)
(0.417825 6.59676e-15 0)
(0.503283 -1.23564e-16 0)
(0.590452 -3.99456e-15 0)
(0.679662 -7.8082e-16 0)
(0.769428 -2.64678e-16 0)
(0.855844 -1.28264e-15 0)
(0.92131 -3.01978e-15 0)
(0.94576 -3.0062e-15 0)
(0.923409 -1.10646e-15 0)
(0.9255 -1.91729e-15 0)
(0.927062 5.75308e-16 0)
(0.927425 2.83627e-16 0)
(0.928034 -1.879e-15 0)
(0.930189 3.63995e-16 0)
(0.9306 -4.49808e-15 0)
(0.920721 -2.59021e-15 0)
(0.934137 1.04255e-15 0)
(0.946253 1.50388e-15 0)
(0.94544 2.02035e-15 0)
(0.916404 2.30774e-16 0)
(0.749121 3.20807e-15 0)
(0.297605 -4.08334e-15 0)
(0.0177833 5.04759e-15 0)
(8.48793e-05 7.32861e-16 0)
(2.39528e-08 -5.78962e-16 0)
(6.82885e-13 2.25513e-16 0)
(4.39391e-17 0 0)
(-1.3414e-16 2.27682e-17 0)
(-2.268e-17 -7.69781e-17 0)
(8.87841e-17 3.14417e-17 0)
(-1.29381e-17 2.60208e-17 0)
(9.94535e-17 -8.67359e-17 0)
(2.13985e-16 7.58939e-18 0)
(8.08986e-17 0 0)
(3.71249e-17 5.96309e-17 0)
(1.38669e-16 1.94071e-16 0)
(2.38437e-17 3.10081e-16 0)
(-4.71137e-20 2.48281e-16 0)
(-2.93235e-17 5.20415e-17 0)
(-1.34708e-16 7.58939e-18 0)
(1.01878e-17 1.33356e-16 0)
(1.36866e-16 3.1767e-16 0)
(1.01496e-17 1.18178e-16 0)
(-3.21806e-16 5.42099e-18 0)
(-5.46522e-16 7.91465e-17 0)
(-3.88512e-16 -7.80623e-17 0)
(-1.2532e-16 1.73472e-17 0)
(1.14341e-16 -2.28766e-16 0)
(3.35837e-16 -2.47197e-16 0)
(3.31904e-16 1.73472e-17 0)
(7.41373e-17 2.78639e-16 0)
(-2.1471e-16 1.82145e-16 0)
(-4.17191e-16 -9.43252e-17 0)
(-3.69998e-16 -3.05744e-16 0)
(-2.67371e-16 -2.7105e-16 0)
(-3.45859e-16 -3.74048e-16 0)
(0 0 0)
(5.98264e-17 -2.81892e-17 0)
(1.34693e-16 -3.42607e-16 0)
(-5.05892e-17 -6.41845e-16 0)
(-2.13353e-16 -3.46943e-16 0)
(-4.3261e-17 -1.51788e-17 0)
(7.23513e-17 0 0)
(3.22541e-17 0 0)
(-4.43477e-17 0 0)
(1.22238e-16 0 0)
(4.04266e-16 0 0)
(4.5118e-19 1.17093e-16 0)
(-3.55514e-16 0 0)
(-6.24093e-17 -5.20415e-17 0)
(1.59772e-16 0 0)
(2.36512e-17 -9.32411e-17 0)
(-2.24407e-16 0 0)
(-7.96103e-17 0 0)
(-1.39329e-17 -1.14925e-16 0)
(-1.37254e-17 0 0)
(1.69847e-16 0 0)
(4.03054e-18 -9.32411e-17 0)
(-1.54226e-16 -4.55363e-17 0)
(-1.71447e-17 0 0)
(1.34301e-18 0 0)
(-4.781e-18 0 0)
(-1.49634e-18 0 0)
(5.71674e-19 0 0)
(-3.45606e-18 0 0)
(-4.43198e-20 0 0)
(-2.90046e-17 0 0)
(-2.06093e-16 0 0)
(-6.54308e-18 -9.75778e-17 0)
(4.69194e-15 -8.67359e-18 0)
(8.87878e-11 -2.64544e-16 0)
(1.65452e-07 -2.80807e-15 0)
(3.58106e-05 -1.28156e-15 0)
(0.00130179 8.10138e-15 0)
(0.0122206 -6.1852e-15 0)
(0.0464142 3.46273e-15 0)
(0.103921 -3.50188e-15 0)
(0.175085 -7.60502e-15 0)
(0.252903 1.561e-14 0)
(0.334236 -1.50501e-14 0)
(0.417825 4.08796e-15 0)
(0.503283 5.41649e-16 0)
(0.590452 -7.51906e-16 0)
(0.679662 -1.1942e-15 0)
(0.769428 9.48701e-16 0)
(0.855844 -3.00981e-15 0)
(0.92131 6.44753e-16 0)
(0.94576 1.40838e-15 0)
(0.923409 -1.13247e-16 0)
(0.9255 -3.78471e-16 0)
(0.927062 9.53877e-16 0)
(0.927425 -5.99916e-17 0)
(0.928034 -1.18964e-15 0)
(0.930189 1.97697e-17 0)
(0.9306 -3.57727e-15 0)
(0.920721 -1.48739e-15 0)
(0.934137 -2.83876e-16 0)
(0.946253 2.50226e-16 0)
(0.94544 1.01271e-15 0)
(0.916404 4.73503e-16 0)
(0.749121 1.07629e-15 0)
(0.297605 -1.64784e-15 0)
(0.0177833 4.86927e-16 0)
(8.48793e-05 4.74842e-16 0)
(2.39528e-08 -6.50519e-17 0)
(6.83004e-13 -7.58939e-18 0)
(-6.81462e-17 8.99885e-17 0)
(-2.51401e-16 0 0)
(-6.44983e-17 -1.51788e-17 0)
(8.77347e-17 -9.97462e-17 0)
(-1.5185e-17 -3.25259e-17 0)
(1.05524e-16 -2.27682e-17 0)
(2.2682e-16 0 0)
(6.47895e-17 0 0)
(8.42674e-17 2.1684e-18 0)
(2.02048e-16 0 0)
(5.94695e-17 0 0)
(-1.60236e-18 0 0)
(-1.60339e-17 0 0)
(-1.3137e-16 0 0)
(5.77662e-17 0 0)
(2.21824e-16 1.60461e-16 0)
(1.77077e-17 0 0)
(-3.14118e-16 0 0)
(-5.56224e-16 0 0)
(-3.68991e-16 0 0)
(-2.10495e-16 -1.6263e-17 0)
(2.82014e-17 -9.32411e-17 0)
(3.34e-16 -9.8662e-17 0)
(4.24324e-16 0 0)
(1.5591e-16 0 0)
(-2.70694e-16 0 0)
(-5.27349e-16 5.63783e-17 0)
(-3.63046e-16 -9.8662e-17 0)
(-1.6615e-16 -9.43252e-17 0)
(-1.57209e-16 -1.85398e-16 0)
(1.36609e-16 1.99492e-16 0)
(1.37959e-16 0 0)
(-1.28443e-16 -1.17093e-16 0)
(-6.85213e-17 -3.33933e-16 0)
(-1.15988e-17 -8.67359e-17 0)
(2.84078e-17 0 0)
(2.55876e-16 5.20415e-17 0)
(7.22231e-17 2.23345e-16 0)
(-9.36005e-17 9.97462e-17 0)
(1.29939e-16 -2.1684e-18 0)
(4.16802e-16 0 0)
(4.67801e-17 0 0)
(-3.21326e-16 0 0)
(-3.1425e-17 -7.37255e-17 0)
(1.91506e-16 0 0)
(2.92016e-17 9.32411e-17 0)
(-2.19406e-16 6.28835e-17 0)
(-1.81173e-16 0 0)
(-4.45938e-17 0 0)
(1.84011e-17 0 0)
(2.17597e-16 0 0)
(3.647e-18 9.32411e-17 0)
(-1.95328e-16 0 0)
(-1.87606e-17 0 0)
(2.77851e-18 0 0)
(-3.48747e-17 0 0)
(-1.38738e-17 0 0)
(-1.71428e-18 0 0)
(-3.81537e-17 0 0)
(-7.08813e-19 0 0)
(-7.76078e-17 0 0)
(-2.74575e-16 -1.60461e-16 0)
(-4.30497e-17 -3.49112e-16 0)
(4.75938e-15 -1.40946e-16 0)
(8.87877e-11 -1.86482e-16 0)
(1.65452e-07 -2.36572e-15 0)
(3.58106e-05 -6.78729e-16 0)
(0.00130179 -6.06518e-15 0)
(0.0122206 6.87318e-15 0)
(0.0464142 -5.28433e-15 0)
(0.103921 -1.37468e-15 0)
(0.175085 -6.98734e-15 0)
(0.252903 8.77753e-15 0)
(0.334236 -8.49223e-15 0)
(0.417825 2.64497e-16 0)
(0.503283 -1.00036e-15 0)
(0.590452 9.09816e-16 0)
(0.679662 -1.49374e-15 0)
(0.769428 2.86353e-15 0)
(0.855844 -6.01014e-16 0)
(0.92131 2.87664e-15 0)
(0.94576 2.77271e-15 0)
(0.923409 1.90014e-16 0)
(0.9255 8.02652e-16 0)
(0.927062 -8.90026e-16 0)
(0.927425 -7.87556e-16 0)
(0.928034 -1.19105e-15 0)
(0.930189 -9.07081e-16 0)
(0.9306 -3.56986e-15 0)
(0.920721 -1.0108e-15 0)
(0.934137 -6.7678e-16 0)
(0.946253 -2.937e-16 0)
(0.94544 5.04074e-16 0)
(0.916404 2.36492e-16 0)
(0.749121 -1.86359e-15 0)
(0.297605 -4.19001e-16 0)
(0.0177833 -2.897e-15 0)
(8.48793e-05 1.508e-15 0)
(2.39528e-08 2.1684e-18 0)
(6.82973e-13 -1.40946e-16 0)
(-5.67828e-17 -8.99885e-17 0)
(-2.19802e-16 -1.74556e-16 0)
(-5.50766e-17 -1.32272e-16 0)
(9.03269e-17 -2.76471e-16 0)
(-1.27666e-17 -1.72388e-16 0)
(1.2589e-16 -3.68627e-17 0)
(2.78705e-16 -9.21569e-17 0)
(1.20895e-16 -1.16009e-16 0)
(7.22144e-18 2.92734e-17 0)
(-1.31838e-17 -1.12757e-16 0)
(-2.54538e-18 -2.40692e-16 0)
(3.50806e-17 -2.37439e-16 0)
(1.39793e-16 -1.82145e-16 0)
(2.94724e-17 -4.44521e-17 0)
(7.39062e-17 6.93887e-17 0)
(1.10859e-16 1.6263e-17 0)
(-1.35506e-18 0 0)
(-2.69604e-16 0 0)
(-4.94494e-16 0 0)
(-4.67021e-16 9.43252e-17 0)
(-2.84907e-16 -8.56517e-17 0)
(7.34025e-17 -1.0842e-18 0)
(3.73856e-16 0 0)
(4.13691e-16 -7.15571e-17 0)
(2.27772e-16 -1.84314e-16 0)
(-8.99936e-17 3.14417e-17 0)
(-3.98732e-16 2.27682e-16 0)
(-5.0419e-16 1.25767e-16 0)
(-3.38399e-16 1.71303e-16 0)
(-2.24429e-16 1.60461e-16 0)
(4.29343e-16 4.74879e-16 0)
(1.92925e-16 1.84314e-16 0)
(-2.11395e-16 1.34441e-16 0)
(-2.56321e-16 -1.32272e-16 0)
(-4.45393e-17 2.1684e-18 0)
(1.56859e-16 4.33679e-18 0)
(3.40667e-16 3.03576e-16 0)
(1.08242e-16 5.31257e-16 0)
(-7.56365e-17 3.49112e-16 0)
(1.59067e-16 1.14925e-16 0)
(3.24864e-16 1.34441e-16 0)
(5.95981e-17 -1.34441e-16 0)
(-2.36265e-16 -7.80623e-17 0)
(-2.97105e-17 -2.68881e-16 0)
(2.04961e-16 -6.93887e-17 0)
(3.58608e-17 2.1684e-17 0)
(-2.33322e-16 2.92734e-16 0)
(-3.37126e-16 1.10588e-16 0)
(-1.02383e-16 0 0)
(5.79707e-17 0 0)
(2.41288e-16 0 0)
(-3.43933e-18 -3.03576e-17 0)
(-1.90441e-16 0 0)
(-6.31825e-18 0 0)
(-5.41162e-18 0 0)
(-1.47479e-16 0 0)
(-6.09854e-17 0 0)
(-1.50633e-17 0 0)
(-1.23844e-16 0 0)
(-6.27929e-18 0 0)
(-1.21629e-16 0 0)
(-3.83851e-16 8.67359e-18 0)
(-1.02949e-16 1.95156e-17 0)
(4.96536e-15 4.33679e-17 0)
(8.87873e-11 -2.38524e-16 0)
(1.65452e-07 -1.06251e-16 0)
(3.58106e-05 -2.02534e-15 0)
(0.00130179 -1.06868e-14 0)
(0.0122206 1.0519e-14 0)
(0.0464142 -6.08967e-15 0)
(0.103921 -3.18783e-15 0)
(0.175085 -1.57697e-15 0)
(0.252903 4.80517e-16 0)
(0.334236 -2.10419e-16 0)
(0.417825 -3.94084e-15 0)
(0.503283 -3.02308e-15 0)
(0.590452 1.68651e-15 0)
(0.679662 -1.35196e-15 0)
(0.769428 3.54755e-15 0)
(0.855844 1.7248e-15 0)
(0.92131 2.7108e-15 0)
(0.94576 2.54149e-15 0)
(0.923409 3.67973e-16 0)
(0.9255 1.46817e-15 0)
(0.927062 -1.91132e-15 0)
(0.927425 -2.90659e-15 0)
(0.928034 -1.09861e-15 0)
(0.930189 -2.23126e-15 0)
(0.9306 -4.08607e-15 0)
(0.920721 -4.42196e-16 0)
(0.934137 -1.54901e-15 0)
(0.946253 -2.70446e-16 0)
(0.94544 -5.73548e-16 0)
(0.916404 -5.40553e-17 0)
(0.749121 -3.15931e-15 0)
(0.297605 4.0364e-16 0)
(0.0177833 -5.84632e-15 0)
(8.48793e-05 2.10318e-16 0)
(2.39528e-08 1.06251e-16 0)
(6.82865e-13 -5.4752e-16 0)
(7.39053e-17 -2.03829e-16 0)
(-8.69885e-17 -3.50196e-16 0)
(-6.50791e-17 -1.8323e-16 0)
(9.24988e-17 -9.8662e-17 0)
(-9.50114e-18 -7.15571e-17 0)
(5.1499e-17 -8.67359e-17 0)
(1.82968e-16 -2.20092e-16 0)
(1.12587e-16 -2.87313e-16 0)
(1.00945e-17 -1.81061e-16 0)
(-1.09987e-16 -3.07912e-16 0)
(-1.39792e-18 -4.55363e-16 0)
(7.00743e-17 -4.51026e-16 0)
(2.13994e-16 -3.87059e-16 0)
(1.02538e-16 -2.25513e-16 0)
(1.20573e-16 -6.93887e-17 0)
(1.29756e-16 0 0)
(-1.62775e-18 0 0)
(-8.54734e-17 -6.72203e-17 0)
(-3.34666e-16 6.07151e-17 0)
(-4.9752e-16 2.6346e-16 0)
(-2.73445e-16 1.20346e-16 0)
(2.66116e-17 7.58939e-18 0)
(2.95311e-16 9.10727e-17 0)
(4.40679e-16 -2.17924e-16 0)
(2.9347e-16 -3.82722e-16 0)
(8.5782e-17 -1.46367e-16 0)
(-3.09556e-16 5.09573e-17 0)
(-4.60603e-16 2.67797e-16 0)
(-3.32651e-16 3.95732e-16 0)
(-4.34764e-16 3.7188e-16 0)
(6.46182e-16 2.53702e-16 0)
(2.58891e-16 1.04083e-16 0)
(-2.2324e-16 7.15571e-17 0)
(-3.23092e-16 1.56125e-16 0)
(7.99516e-18 8.89043e-17 0)
(3.27195e-16 2.53702e-16 0)
(5.23292e-16 1.6263e-16 0)
(1.60935e-16 2.73218e-16 0)
(-2.59218e-16 1.86482e-16 0)
(2.69834e-16 3.27428e-16 0)
(-3.67112e-17 2.38524e-17 0)
(-1.63151e-16 -2.53702e-16 0)
(-1.87981e-16 4.81481e-34 0)
(-7.07087e-17 8.89043e-17 0)
(2.36831e-16 -2.1684e-18 0)
(2.53057e-16 -1.97324e-16 0)
(-5.42562e-17 9.75778e-17 0)
(-4.21644e-16 2.34187e-16 0)
(-1.51834e-16 7.80623e-17 0)
(7.58373e-17 1.82145e-16 0)
(-1.56067e-16 1.95156e-17 0)
(-1.27034e-16 -2.62376e-16 0)
(1.37035e-16 3.46943e-17 0)
(2.54661e-16 2.60208e-16 0)
(-6.57622e-17 1.17093e-16 0)
(-3.25705e-16 2.38524e-17 0)
(-1.4469e-16 0 0)
(-3.73441e-17 0 0)
(-2.09126e-16 2.60208e-17 0)
(-3.10618e-17 -4.33679e-18 0)
(3.46528e-17 2.60208e-17 0)
(-1.47872e-16 2.08166e-16 0)
(1.24776e-16 3.90311e-16 0)
(4.77147e-15 2.25513e-16 0)
(8.87869e-11 -2.45029e-16 0)
(1.65452e-07 2.10551e-15 0)
(3.58106e-05 -5.12624e-15 0)
(0.00130179 -6.3539e-15 0)
(0.0122206 -1.35404e-15 0)
(0.0464142 3.80675e-15 0)
(0.103921 -8.32036e-15 0)
(0.175085 4.57335e-15 0)
(0.252903 -1.00355e-14 0)
(0.334236 6.54331e-15 0)
(0.417825 -6.99899e-15 0)
(0.503283 -2.05827e-15 0)
(0.590452 3.99364e-16 0)
(0.679662 -8.56705e-16 0)
(0.769428 2.98225e-15 0)
(0.855844 -1.39051e-15 0)
(0.92131 3.78465e-15 0)
(0.94576 4.1487e-15 0)
(0.923409 1.77515e-15 0)
(0.9255 3.84544e-16 0)
(0.927062 -2.54108e-16 0)
(0.927425 -2.359e-15 0)
(0.928034 -1.45e-16 0)
(0.930189 -2.92824e-15 0)
(0.9306 -3.80006e-15 0)
(0.920721 3.29346e-17 0)
(0.934137 -6.92356e-16 0)
(0.946253 -7.03161e-16 0)
(0.94544 -1.74854e-15 0)
(0.916404 -4.45436e-16 0)
(0.749121 -2.09491e-15 0)
(0.297605 -9.25898e-16 0)
(0.0177833 -2.01284e-15 0)
(8.48793e-05 -3.15152e-15 0)
(2.39528e-08 6.78708e-16 0)
(6.83887e-13 -4.28258e-16 0)
(-7.81262e-17 -7.58939e-17 0)
(-3.18301e-17 -1.57209e-16 0)
(7.91785e-17 -4.66205e-17 0)
(1.45586e-17 3.68627e-17 0)
(-8.91562e-17 -6.61361e-17 0)
(-6.77504e-17 3.46943e-17 0)
(8.01534e-17 -8.99885e-17 0)
(1.67527e-16 -1.23599e-16 0)
(-7.86099e-18 -7.37255e-17 0)
(-1.67469e-16 -1.92987e-16 0)
(2.58858e-18 -2.04913e-16 0)
(1.17278e-16 -2.32018e-16 0)
(2.83253e-16 -1.98408e-16 0)
(1.82181e-16 -2.34187e-16 0)
(2.23159e-16 -8.78201e-17 0)
(1.55872e-16 0 0)
(1.17144e-17 -9.21569e-17 0)
(3.84114e-17 -2.37439e-16 0)
(-3.73951e-17 -8.67359e-18 0)
(-2.70577e-16 2.26597e-16 0)
(-2.65147e-16 3.26344e-16 0)
(-6.82217e-17 1.32272e-16 0)
(1.54383e-16 0 0)
(2.42865e-16 -1.51788e-16 0)
(4.20585e-16 -2.38524e-16 0)
(2.22723e-16 -6.93887e-17 0)
(-1.25322e-16 -1.0083e-16 0)
(-3.25542e-16 1.30104e-16 0)
(-4.03053e-16 2.0925e-16 0)
(-5.62699e-16 2.49366e-16 0)
(4.44521e-16 -2.1684e-18 0)
(1.77206e-16 2.55871e-16 0)
(-1.49463e-16 2.51534e-16 0)
(-1.16488e-16 4.33679e-16 0)
(1.62292e-16 3.40438e-16 0)
(4.13262e-16 5.83299e-16 0)
(3.42751e-16 3.44775e-16 0)
(2.34783e-17 1.23599e-16 0)
(-7.6668e-17 1.97324e-16 0)
(-9.62508e-17 -3.90311e-17 0)
(-3.16426e-16 -2.94902e-16 0)
(-6.835e-17 -4.98731e-17 0)
(-2.0523e-16 2.40692e-16 0)
(-7.39829e-18 4.55363e-16 0)
(2.22601e-16 2.25513e-16 0)
(9.21595e-17 -1.73472e-17 0)
(3.45298e-17 1.45283e-16 0)
(-2.27672e-16 4.03322e-16 0)
(-4.3853e-17 2.92734e-16 0)
(6.58604e-17 4.74879e-16 0)
(-1.73076e-16 2.40692e-16 0)
(-1.25998e-16 6.28835e-17 0)
(1.46364e-16 2.53702e-16 0)
(2.5051e-16 5.8113e-16 0)
(-1.10496e-16 3.75133e-16 0)
(-4.78107e-16 2.27682e-16 0)
(-2.2897e-16 2.81892e-17 0)
(-4.45065e-17 6.50519e-17 0)
(-2.29283e-16 4.55363e-17 0)
(-6.53258e-17 -1.49619e-16 0)
(1.29956e-16 0 0)
(1.12785e-16 0 0)
(2.93988e-16 2.23345e-16 0)
(4.99194e-15 5.07405e-16 0)
(8.87858e-11 -5.46436e-16 0)
(1.65452e-07 1.79977e-16 0)
(3.58106e-05 -4.04418e-15 0)
(0.00130179 1.92115e-15 0)
(0.0122206 -1.43379e-14 0)
(0.0464142 1.2732e-14 0)
(0.103921 -9.66304e-15 0)
(0.175085 7.63527e-15 0)
(0.252903 -1.76239e-14 0)
(0.334236 9.64011e-15 0)
(0.417825 -6.73918e-15 0)
(0.503283 -1.07145e-15 0)
(0.590452 -2.40996e-15 0)
(0.679662 -3.31799e-15 0)
(0.769428 2.72411e-15 0)
(0.855844 4.33868e-16 0)
(0.92131 4.07314e-15 0)
(0.94576 3.49325e-15 0)
(0.923409 1.95279e-15 0)
(0.9255 2.79378e-16 0)
(0.927062 6.59902e-16 0)
(0.927425 -1.27882e-15 0)
(0.928034 -7.29587e-16 0)
(0.930189 -2.47354e-15 0)
(0.9306 -1.35243e-15 0)
(0.920721 -1.1687e-15 0)
(0.934137 -1.16565e-16 0)
(0.946253 -1.3679e-15 0)
(0.94544 -8.44349e-16 0)
(0.916404 -1.72821e-15 0)
(0.749121 -2.79539e-15 0)
(0.297605 -3.92803e-15 0)
(0.0177833 4.46136e-15 0)
(8.48793e-05 -3.70659e-15 0)
(2.39528e-08 -2.56955e-16 0)
(6.83527e-13 4.87889e-16 0)
(-4.05584e-17 4.33679e-17 0)
(7.75327e-18 1.44198e-16 0)
(1.09976e-16 4.22837e-17 0)
(9.40974e-18 -6.17993e-17 0)
(-9.40329e-17 4.22837e-17 0)
(4.01253e-17 1.56125e-16 0)
(2.21063e-16 1.68051e-16 0)
(1.01634e-16 7.58939e-18 0)
(-8.75168e-17 -7.69781e-17 0)
(-6.07545e-17 8.56517e-17 0)
(9.79633e-17 1.6263e-16 0)
(-4.79408e-20 6.07151e-17 0)
(7.62762e-17 6.28835e-17 0)
(2.14761e-16 -5.20415e-17 0)
(2.64625e-16 0 0)
(7.16385e-17 0 0)
(-9.69885e-17 -1.48535e-16 0)
(6.28375e-17 -5.52941e-17 0)
(1.54866e-16 0 0)
(-2.55707e-17 -1.84314e-17 0)
(-1.80451e-16 1.37693e-16 0)
(-1.3493e-16 3.36101e-17 0)
(4.17806e-17 1.0842e-16 0)
(1.64693e-16 1.57209e-16 0)
(3.1429e-16 7.26413e-17 0)
(1.24483e-16 -1.35525e-16 0)
(-2.08645e-16 -2.04913e-16 0)
(-3.89371e-16 -1.95156e-17 0)
(-3.64249e-16 1.40946e-17 0)
(-4.69458e-16 1.10588e-16 0)
(6.59193e-16 -2.27682e-16 0)
(2.86608e-16 -9.97462e-17 0)
(-1.2948e-16 -7.58939e-17 0)
(-1.54929e-16 1.6263e-16 0)
(1.94194e-16 1.58293e-16 0)
(5.03431e-16 2.68881e-16 0)
(1.77136e-16 -3.25259e-17 0)
(-3.56682e-17 -3.20923e-16 0)
(-3.01622e-16 -1.95156e-16 0)
(-4.49315e-16 -4.09827e-16 0)
(-1.06007e-16 -8.02307e-17 0)
(1.60827e-16 2.4286e-16 0)
(-2.68498e-17 6.50519e-17 0)
(-2.11558e-16 2.49366e-16 0)
(-3.13159e-17 -4.33679e-18 0)
(2.76041e-16 -4.98731e-17 0)
(1.92101e-16 -1.6263e-16 0)
(8.15571e-18 2.1684e-17 0)
(1.30233e-18 4.33679e-18 0)
(2.44971e-17 6.93887e-17 0)
(-1.58435e-16 -1.12757e-16 0)
(-1.00654e-16 4.33679e-18 0)
(1.48216e-16 8.02307e-17 0)
(6.18229e-17 1.99492e-16 0)
(-3.02261e-16 8.67359e-18 0)
(-6.72354e-16 6.50519e-18 0)
(-2.8865e-16 0 0)
(1.37407e-16 0 0)
(-4.98306e-17 -1.49619e-16 0)
(-3.50316e-16 -3.90311e-16 0)