/*--------------------------------*- C++ -*----------------------------------*\
| =========                 |                                                 |
| \\      /  F ield         | OpenFOAM: The Open Source CFD Toolbox           |
|  \\    /   O peration     | Version:  4.1                                   |
|   \\  /    A nd           | Web:      www.OpenFOAM.org                      |
|    \\/     M anipulation  |                                                 |
\*---------------------------------------------------------------------------*/
FoamFile
{
    version     2.0;
    format      ascii;
    class       volVectorField;
    location    "0.18";
    object      U;
}
// * * * * * * * * * * * * * * * * * * * * * * * * * * * * * * * * * * * * * //

dimensions      [0 1 -1 0 0 0 0];

internalField   nonuniform List<vector> 
10000
(
(0 0 0)
(8.71199e-17 0 0)
(2.38917e-16 0 0)
(5.8637e-17 1.27935e-16 0)
(-1.02999e-16 0 0)
(-1.39339e-16 0 0)
(-1.69931e-16 0 0)
(-2.1738e-17 0 0)
(-4.26073e-28 0 0)
(1.26162e-16 1.25767e-16 0)
(3.42797e-16 0 0)
(3.33387e-17 -1.51788e-16 0)
(-2.94752e-16 0 0)
(-6.43428e-18 0 0)
(1.62126e-16 0 0)
(-2.36423e-17 1.27935e-16 0)
(-2.10714e-16 0 0)
(-5.95829e-17 0 0)
(-3.89535e-18 0 0)
(-5.76121e-17 0 0)
(1.29615e-19 0 0)
(3.16322e-17 9.97462e-17 0)
(9.53437e-18 0 0)
(9.02557e-17 0 0)
(-3.61308e-17 0 0)
(-1.81015e-16 0 0)
(-3.09266e-16 -1.17093e-16 0)
(-2.30867e-17 8.67359e-17 0)
(2.82514e-16 0 0)
(4.18606e-17 1.36609e-16 0)
(-1.77664e-16 0 0)
(-2.33019e-19 -2.01661e-16 0)
(3.09731e-16 -2.1684e-18 0)
(2.66596e-12 -1.51788e-17 0)
(1.20003e-08 9.7361e-16 0)
(5.57596e-06 5.23453e-15 0)
(0.000377665 -1.83939e-15 0)
(0.00560448 1.9761e-15 0)
(0.0285518 2.5005e-15 0)
(0.0754542 1.79211e-14 0)
(0.138918 1.61723e-14 0)
(0.210737 1.86721e-14 0)
(0.286734 1.02765e-14 0)
(0.365179 1.24613e-14 0)
(0.445376 1.10602e-14 0)
(0.527162 -2.82227e-15 0)
(0.610458 -1.1155e-14 0)
(0.695398 -2.33972e-15 0)
(0.780691 1.76855e-14 0)
(0.861985 4.04379e-15 0)
(0.923075 8.86779e-16 0)
(0.944714 3.2545e-15 0)
(0.923243 3.77416e-15 0)
(0.925431 6.14867e-15 0)
(0.927166 4.15479e-15 0)
(0.927605 4.29148e-15 0)
(0.927885 3.81876e-15 0)
(0.928744 3.58672e-15 0)
(0.931671 3.89721e-15 0)
(0.926524 1.89252e-15 0)
(0.921054 3.82164e-15 0)
(0.936205 3.08123e-15 0)
(0.944403 7.91898e-16 0)
(0.941802 -4.02478e-16 0)
(0.906567 -6.78288e-15 0)
(0.713774 -7.21094e-15 0)
(0.24701 -2.75402e-15 0)
(0.0114724 5.64684e-16 0)
(4.11912e-05 -1.95148e-17 0)
(8.40738e-09 4.92226e-16 0)
(2.29857e-13 -6.83045e-17 0)
(-1.74513e-16 0 0)
(-1.09531e-17 1.69135e-16 0)
(-7.14748e-17 4.597e-16 0)
(-1.7981e-16 2.03829e-16 0)
(4.99165e-17 0 0)
(2.60418e-16 0 0)
(6.08862e-17 0 0)
(-1.29886e-16 9.54094e-17 0)
(6.10565e-17 0 0)
(2.60787e-16 0 0)
(5.70266e-17 0 0)
(-1.46572e-16 0 0)
(5.45248e-17 0 0)
(2.44516e-16 9.75778e-17 0)
(7.08615e-17 0 0)
(-1.42626e-16 0 0)
(-3.81756e-17 0 0)
(-3.53406e-17 0 0)
(-1.19853e-16 0 0)
(-1.96499e-16 -6.50519e-18 0)
(-3.50288e-16 0 0)
(-1.45743e-16 6.50519e-18 0)
(6.28278e-17 0 0)
(2.66743e-16 0 0)
(5.77366e-17 0 0)
(-1.52191e-16 8.45675e-17 0)
(-1.53765e-16 0 0)
(-6.60969e-17 0 0)
(0 5.42099e-18 0)
(0 0 0)
(1.27917e-16 0 0)
(2.67988e-16 1.27935e-16 0)
(6.7548e-17 3.12249e-16 0)
(-1.32996e-16 1.25767e-16 0)
(-2.56755e-16 2.47197e-16 0)
(-2.46694e-16 4.98731e-17 0)
(-3.36181e-17 0 0)
(-1.14603e-24 0 0)
(1.48273e-16 0 0)
(4.10459e-16 0 0)
(8.61657e-17 0 0)
(-2.52514e-16 0 0)
(1.85852e-17 0 0)
(1.4828e-16 1.30104e-16 0)
(-3.55068e-17 3.12249e-16 0)
(-2.2511e-16 1.27935e-16 0)
(-1.06537e-16 0 0)
(-1.79138e-17 0 0)
(-1.34694e-16 0 0)
(5.34946e-19 0 0)
(5.76319e-17 2.1684e-18 0)
(2.58345e-17 0 0)
(1.08723e-16 9.97462e-17 0)
(-8.65284e-17 2.7105e-16 0)
(-2.76282e-16 8.23991e-17 0)
(-2.25402e-16 6.72203e-17 0)
(-1.28445e-17 2.7105e-16 0)
(1.77616e-16 8.89043e-17 0)
(5.23296e-17 0 0)
(-1.82929e-16 0 0)
(-1.65248e-18 8.02307e-17 0)
(2.52014e-16 -4.33679e-18 0)
(2.66608e-12 2.81892e-17 0)
(1.20003e-08 2.9642e-15 0)
(5.57596e-06 5.18249e-15 0)
(0.000377665 6.40532e-15 0)
(0.00560448 2.23537e-15 0)
(0.0285518 3.66022e-15 0)
(0.0754542 2.17694e-14 0)
(0.138918 -1.5465e-14 0)
(0.210737 2.93607e-14 0)
(0.286734 1.37424e-14 0)
(0.365179 -1.88441e-15 0)
(0.445376 8.0336e-15 0)
(0.527162 3.2566e-15 0)
(0.610458 2.37785e-15 0)
(0.695398 -1.88556e-15 0)
(0.780691 8.71836e-15 0)
(0.861985 5.69709e-15 0)
(0.923075 5.03993e-15 0)
(0.944714 4.55966e-15 0)
(0.923243 2.13122e-15 0)
(0.925431 7.16872e-15 0)
(0.927166 4.3612e-15 0)
(0.927605 2.94538e-15 0)
(0.927885 2.4455e-15 0)
(0.928744 1.64192e-15 0)
(0.931671 1.35428e-15 0)
(0.926524 1.49144e-15 0)
(0.921054 5.80254e-15 0)
(0.936205 4.77038e-15 0)
(0.944403 2.88502e-15 0)
(0.941802 2.51511e-15 0)
(0.906567 -7.4353e-16 0)
(0.713774 -2.30011e-15 0)
(0.24701 -9.76028e-16 0)
(0.0114724 4.04726e-16 0)
(4.11912e-05 -1.30207e-15 0)
(8.40738e-09 9.36747e-16 0)
(2.3008e-13 -3.14417e-17 0)
(-9.32168e-17 4.11995e-17 0)
(1.65789e-17 1.50704e-16 0)
(-7.88831e-17 2.61292e-16 0)
(-1.81064e-16 1.6263e-16 0)
(2.24997e-17 1.2902e-16 0)
(2.10481e-16 6.50519e-18 0)
(1.1871e-17 2.92734e-17 0)
(-1.57896e-16 1.98408e-16 0)
(1.39323e-17 2.81892e-17 0)
(2.13998e-16 0 0)
(4.23092e-17 0 0)
(-1.49292e-16 2.81892e-17 0)
(4.43306e-17 1.49619e-16 0)
(2.50059e-16 2.00577e-16 0)
(7.17671e-17 2.27682e-17 0)
(-1.69373e-16 0 0)
(-6.76373e-17 0 0)
(-6.52473e-17 0 0)
(-1.6737e-16 -6.50519e-18 0)
(-1.29012e-16 -4.11995e-17 0)
(-2.37826e-16 8.45675e-17 0)
(-1.181e-16 2.08166e-16 0)
(7.10562e-17 4.44521e-17 0)
(2.79549e-16 0 0)
(6.11096e-17 1.95156e-17 0)
(-1.69731e-16 1.87566e-16 0)
(-2.37822e-16 1.8865e-16 0)
(-1.47793e-16 1.2143e-16 0)
(-9.10727e-17 2.14671e-16 0)
(0 0 0)
(1.94992e-16 0 0)
(4.94863e-16 0 0)
(8.98075e-17 8.45675e-17 0)
(-3.53058e-16 3.44775e-16 0)
(-3.24452e-16 5.72457e-16 0)
(-2.62144e-16 2.40692e-16 0)
(-3.66633e-17 0 0)
(-5.43078e-22 0 0)
(1.91442e-16 0 0)
(4.93083e-16 0 0)
(1.58323e-16 2.1684e-18 0)
(-1.21392e-16 1.73472e-17 0)
(9.2091e-17 2.2985e-16 0)
(3.15737e-16 7.58939e-17 0)
(-4.60698e-17 7.37255e-17 0)
(-4.07042e-16 0 0)
(-1.52879e-16 0 0)
(-5.40831e-17 1.01915e-16 0)
(-2.33995e-16 0 0)
(9.21372e-19 0 0)
(1.54627e-16 0 0)
(5.98997e-17 8.23991e-17 0)
(1.45601e-16 3.53449e-16 0)
(-1.02789e-16 6.04983e-16 0)
(-3.85696e-16 3.23091e-16 0)
(-3.75369e-16 0 0)
(-2.79494e-17 4.98731e-17 0)
(3.02624e-16 0 0)
(7.97352e-17 0 0)
(-9.03724e-21 1.36609e-16 0)
(-1.53387e-17 4.07659e-16 0)
(1.88858e-16 1.92987e-16 0)
(2.66588e-12 1.38777e-16 0)
(1.20003e-08 3.26344e-15 0)
(5.57596e-06 2.25297e-15 0)
(0.000377665 1.72681e-14 0)
(0.00560448 2.90641e-15 0)
(0.0285518 -1.28191e-15 0)
(0.0754542 2.23869e-14 0)
(0.138918 -2.49681e-14 0)
(0.210737 2.61004e-14 0)
(0.286734 1.36409e-14 0)
(0.365179 -1.10454e-14 0)
(0.445376 6.11106e-15 0)
(0.527162 1.33932e-15 0)
(0.610458 3.68184e-15 0)
(0.695398 -2.53943e-15 0)
(0.780691 7.0185e-15 0)
(0.861985 1.94436e-15 0)
(0.923075 1.81114e-15 0)
(0.944714 3.29007e-15 0)
(0.923243 1.76493e-15 0)
(0.925431 8.70421e-15 0)
(0.927166 4.00957e-15 0)
(0.927605 1.75101e-15 0)
(0.927885 5.63345e-16 0)
(0.928744 9.16002e-16 0)
(0.931671 -3.98003e-16 0)
(0.926524 -1.64965e-15 0)
(0.921054 4.53398e-15 0)
(0.936205 4.66291e-15 0)
(0.944403 3.65866e-15 0)
(0.941802 5.52631e-15 0)
(0.906567 4.87902e-15 0)
(0.713774 1.1843e-15 0)
(0.24701 2.26378e-15 0)
(0.0114724 -8.13747e-16 0)
(4.11912e-05 -2.2789e-15 0)
(8.40738e-09 1.43006e-15 0)
(2.30019e-13 1.32272e-16 0)
(-1.75162e-16 2.11419e-16 0)
(-2.444e-17 1.99492e-16 0)
(3.50899e-17 8.56517e-17 0)
(-6.32838e-17 1.95156e-16 0)
(5.85911e-17 3.18754e-16 0)
(1.79042e-16 2.30934e-16 0)
(3.01826e-18 1.17093e-16 0)
(-1.99146e-16 1.50704e-16 0)
(-6.94371e-17 2.19008e-16 0)
(1.23923e-16 1.9624e-16 0)
(1.34559e-16 1.33356e-16 0)
(3.40973e-17 2.58039e-16 0)
(1.34961e-16 3.41522e-16 0)
(1.59908e-16 1.39862e-16 0)
(-2.98719e-17 -7.91465e-17 0)
(-1.99712e-16 -3.03576e-17 0)
(-9.80993e-17 7.37255e-17 0)
(-9.96077e-17 -2.81892e-17 0)
(-1.98763e-16 7.48097e-17 0)
(-9.54968e-17 6.07151e-17 0)
(-7.56442e-17 2.49366e-16 0)
(-1.30194e-16 4.11995e-16 0)
(3.05408e-18 2.9707e-16 0)
(1.90074e-16 1.19262e-16 0)
(9.40172e-17 1.0842e-18 0)
(-1.1323e-16 1.86482e-16 0)
(-3.15791e-16 3.87059e-16 0)
(-2.139e-16 2.99239e-16 0)
(-2.77555e-16 4.01153e-16 0)
(-2.1684e-18 -2.1684e-18 0)
(2.6008e-16 -2.1684e-18 0)
(5.85248e-16 -2.1684e-18 0)
(2.31135e-16 3.90311e-17 0)
(-2.195e-16 2.86228e-16 0)
(-5.7267e-16 1.58293e-16 0)
(-2.72885e-16 -2.1684e-18 0)
(-2.08565e-17 -2.1684e-18 0)
(-5.21929e-20 0 0)
(9.22677e-17 0 0)
(3.37868e-16 -4.33679e-18 0)
(1.58471e-16 -1.69135e-16 0)
(1.9947e-16 1.8865e-16 0)
(1.39248e-16 5.46436e-16 0)
(2.15994e-16 2.58039e-16 0)
(-3.78635e-17 0 0)
(-2.6947e-16 -2.1684e-18 0)
(-3.91286e-17 1.17093e-16 0)
(-7.57616e-17 3.49112e-16 0)
(-2.57538e-16 1.73472e-16 0)
(-1.97567e-20 0 0)
(2.49936e-16 1.43114e-16 0)
(6.97615e-17 3.25259e-16 0)
(2.2086e-16 1.40946e-16 0)
(-1.25361e-16 1.86482e-16 0)
(-4.67979e-16 5.85467e-17 0)
(-4.40718e-16 -4.33679e-18 0)
(-3.8564e-17 0 0)
(3.37725e-16 -2.1684e-18 0)
(9.07504e-17 0 0)
(-2.60122e-20 0 0)
(-1.22279e-16 1.53956e-16 0)
(3.73175e-16 1.30104e-17 0)
(2.66613e-12 1.06035e-15 0)
(1.20003e-08 2.52185e-15 0)
(5.57596e-06 1.92338e-15 0)
(0.000377665 1.26067e-14 0)
(0.00560448 1.6665e-14 0)
(0.0285518 -1.85177e-14 0)
(0.0754542 2.67174e-14 0)
(0.138918 -2.42523e-14 0)
(0.210737 1.76864e-14 0)
(0.286734 1.53501e-14 0)
(0.365179 -1.61316e-14 0)
(0.445376 5.98909e-15 0)
(0.527162 1.63695e-15 0)
(0.610458 6.95957e-16 0)
(0.695398 -2.53943e-15 0)
(0.780691 1.86169e-15 0)
(0.861985 -3.03583e-15 0)
(0.923075 -4.65496e-16 0)
(0.944714 1.87302e-15 0)
(0.923243 5.11671e-15 0)
(0.925431 4.73972e-15 0)
(0.927166 3.06675e-15 0)
(0.927605 1.14873e-15 0)
(0.927885 7.21219e-16 0)
(0.928744 1.34756e-15 0)
(0.931671 -1.76753e-15 0)
(0.926524 -1.24626e-15 0)
(0.921054 1.59281e-15 0)
(0.936205 2.51294e-15 0)
(0.944403 4.27148e-15 0)
(0.941802 5.18591e-15 0)
(0.906567 2.83903e-15 0)
(0.713774 1.0987e-15 0)
(0.24701 3.69274e-15 0)
(0.0114724 7.40746e-16 0)
(4.11912e-05 8.18539e-16 0)
(8.40737e-09 7.86044e-16 0)
(2.30012e-13 1.78893e-16 0)
(-2.43149e-16 4.07659e-16 0)
(-7.14856e-17 3.42607e-16 0)
(4.79445e-17 2.10334e-16 0)
(9.74132e-17 3.13333e-16 0)
(3.78625e-17 3.3827e-16 0)
(1.06715e-16 4.35848e-16 0)
(-2.52591e-17 2.75386e-16 0)
(-2.04514e-16 2.66713e-16 0)
(-3.76716e-17 4.34764e-16 0)
(1.34115e-16 4.78131e-16 0)
(2.81715e-16 3.31765e-16 0)
(2.32804e-16 4.65121e-16 0)
(6.94324e-18 4.29343e-16 0)
(-1.37465e-16 1.91903e-16 0)
(-2.42634e-17 3.14417e-17 0)
(1.03544e-17 1.14925e-16 0)
(-1.18208e-16 1.50704e-16 0)
(-1.93336e-16 2.27682e-17 0)
(-9.08993e-17 1.24683e-16 0)
(3.06922e-18 2.27682e-17 0)
(3.50001e-17 1.02999e-16 0)
(-1.55358e-16 2.91649e-16 0)
(-1.64738e-16 4.9331e-16 0)
(-2.17417e-17 3.53449e-16 0)
(-8.42916e-17 1.81061e-16 0)
(4.38447e-18 7.04729e-17 0)
(-1.45918e-16 2.17924e-16 0)
(-3.04754e-16 1.9624e-16 0)
(-4.91142e-16 1.8865e-16 0)
(-2.1684e-18 2.1684e-18 0)
(3.1333e-16 2.1684e-18 0)
(6.64486e-16 2.1684e-18 0)
(2.53623e-16 1.66967e-16 0)
(-4.62975e-16 -1.45283e-16 0)
(-5.33125e-16 -5.44268e-16 0)
(-2.17979e-16 -2.40692e-16 0)
(-4.8995e-18 2.1684e-18 0)
(-1.35944e-18 0 0)
(1.17344e-16 -2.1684e-18 0)
(3.7904e-16 -2.1684e-17 0)
(2.06569e-16 1.38777e-16 0)
(3.86697e-16 1.30104e-17 0)
(2.06639e-16 1.92987e-16 0)
(2.4337e-16 1.30104e-17 0)
(-5.04692e-17 9.10727e-17 0)
(-3.51329e-16 2.1684e-18 0)
(-7.88046e-17 2.1684e-18 0)
(-9.57511e-17 -1.51788e-17 0)
(-2.91279e-16 0 0)
(4.12793e-17 0 0)
(3.20212e-16 2.60208e-16 0)
(5.6805e-17 3.46943e-17 0)
(-2.96584e-17 -9.10727e-17 0)
(-2.52238e-17 -3.64291e-16 0)
(-1.91306e-16 -1.58293e-16 0)
(-1.99398e-16 -1.12757e-16 0)
(3.72576e-17 0 0)
(9.52594e-17 2.1684e-18 0)
(2.13327e-21 0 0)
(-6.50986e-19 0 0)
(-3.67269e-17 0 0)
(1.70105e-16 0 0)
(2.66789e-12 1.6263e-16 0)
(1.20003e-08 -7.80623e-16 0)
(5.57596e-06 4.07227e-15 0)
(0.000377665 -2.19078e-16 0)
(0.00560448 3.15021e-14 0)
(0.0285518 -3.62722e-14 0)
(0.0754542 2.88266e-14 0)
(0.138918 -1.69442e-14 0)
(0.210737 7.13047e-15 0)
(0.286734 1.78355e-14 0)
(0.365179 -1.85129e-14 0)
(0.445376 5.79973e-15 0)
(0.527162 1.59542e-15 0)
(0.610458 -2.99523e-15 0)
(0.695398 -1.93017e-15 0)
(0.780691 -1.07342e-15 0)
(0.861985 -2.75312e-15 0)
(0.923075 -2.50907e-15 0)
(0.944714 -1.95516e-15 0)
(0.923243 3.40216e-15 0)
(0.925431 -2.0978e-15 0)
(0.927166 7.65077e-16 0)
(0.927605 1.04233e-15 0)
(0.927885 3.27391e-16 0)
(0.928744 1.80723e-15 0)
(0.931671 -2.84617e-15 0)
(0.926524 -1.81896e-15 0)
(0.921054 1.25559e-15 0)
(0.936205 2.02678e-15 0)
(0.944403 4.75088e-15 0)
(0.941802 2.39909e-15 0)
(0.906567 2.11487e-15 0)
(0.713774 -9.49515e-16 0)
(0.24701 5.86505e-15 0)
(0.0114724 4.15462e-15 0)
(4.11912e-05 1.04404e-15 0)
(8.40737e-09 5.94141e-16 0)
(2.30219e-13 -1.26851e-16 0)
(-1.10165e-16 2.45029e-16 0)
(-1.70593e-17 1.4203e-16 0)
(7.71251e-17 2.35271e-16 0)
(-2.22055e-17 2.33103e-16 0)
(6.9063e-17 1.30104e-16 0)
(1.63305e-16 2.33103e-16 0)
(5.63618e-17 1.64798e-16 0)
(-5.18184e-17 2.90565e-16 0)
(8.96244e-17 4.34764e-16 0)
(3.53041e-17 5.6812e-16 0)
(1.58449e-16 4.52111e-16 0)
(4.82864e-17 2.79723e-16 0)
(-9.73681e-17 2.30934e-16 0)
(-1.50535e-16 3.06828e-16 0)
(-2.84378e-17 2.60208e-16 0)
(1.4298e-17 2.99239e-16 0)
(-2.46513e-16 1.5504e-16 0)
(-3.8876e-16 1.56125e-16 0)
(-2.5432e-16 -3.68627e-17 0)
(1.36879e-18 -1.10588e-16 0)
(2.22295e-16 -1.10588e-16 0)
(1.02734e-16 -1.73472e-17 0)
(6.69626e-17 2.95986e-16 0)
(4.58213e-17 5.23668e-16 0)
(-1.52487e-16 3.91396e-16 0)
(-2.07913e-16 7.15571e-17 0)
(-2.78178e-16 -1.35525e-16 0)
(-4.26023e-16 -6.72203e-17 0)
(-5.65951e-16 -1.94071e-16 0)
(0 0 0)
(1.49243e-16 0 0)
(4.2528e-16 -5.85467e-17 0)
(5.62587e-18 -2.68881e-16 0)
(-5.42933e-16 -5.39931e-16 0)
(-2.31049e-16 -2.40692e-16 0)
(-6.47376e-17 -2.1684e-17 0)
(6.61989e-18 0 0)
(-1.23607e-17 0 0)
(1.38482e-16 2.1684e-18 0)
(3.95891e-16 1.6263e-16 0)
(2.05524e-16 3.44775e-16 0)
(-2.94266e-17 1.06251e-16 0)
(1.02709e-16 -1.53956e-16 0)
(3.00763e-16 -6.50519e-17 0)
(-5.92337e-17 -9.32411e-17 0)
(-4.09869e-16 0 0)
(-1.18398e-16 -9.97462e-17 0)
(-8.72651e-18 -3.77301e-16 0)
(-4.99218e-17 -1.36609e-16 0)
(1.89073e-16 0 0)
(5.58406e-17 1.51788e-17 0)
(-1.76211e-16 -2.23345e-16 0)
(-1.87612e-17 -4.33679e-17 0)
(3.17308e-19 -1.06251e-16 0)
(-4.32201e-18 0 0)
(-9.06895e-19 1.17093e-16 0)
(5.2436e-19 0 0)
(8.47769e-18 0 0)
(-1.02504e-21 0 0)
(-6.67425e-18 0 0)
(-1.07427e-16 0 0)
(1.45312e-16 0 0)
(2.66677e-12 -9.64936e-16 0)
(1.20003e-08 -2.14238e-15 0)
(5.57596e-06 6.37512e-16 0)
(0.000377665 -2.30791e-15 0)
(0.00560448 2.96546e-14 0)
(0.0285518 -3.24921e-14 0)
(0.0754542 1.99655e-14 0)
(0.138918 -1.08393e-14 0)
(0.210737 -3.02359e-15 0)
(0.286734 1.85754e-14 0)
(0.365179 -1.79265e-14 0)
(0.445376 4.25912e-15 0)
(0.527162 8.70387e-16 0)
(0.610458 -3.24312e-15 0)
(0.695398 -1.24893e-15 0)
(0.780691 7.5965e-17 0)
(0.861985 -1.36224e-15 0)
(0.923075 -3.54522e-15 0)
(0.944714 -3.70044e-15 0)
(0.923243 -1.08494e-15 0)
(0.925431 -2.03054e-15 0)
(0.927166 9.64396e-16 0)
(0.927605 2.78151e-16 0)
(0.927885 -1.75134e-15 0)
(0.928744 6.76739e-17 0)
(0.931671 -4.4353e-15 0)
(0.926524 -2.87556e-15 0)
(0.921054 1.56986e-15 0)
(0.936205 2.54437e-15 0)
(0.944403 2.56695e-15 0)
(0.941802 2.23882e-16 0)
(0.906567 2.28033e-15 0)
(0.713774 -2.06472e-15 0)
(0.24701 4.39701e-15 0)
(0.0114724 2.1546e-15 0)
(4.11912e-05 -7.92519e-16 0)
(8.40737e-09 9.80115e-16 0)
(2.30817e-13 1.51788e-17 0)
(-1.55939e-16 2.38524e-17 0)
(-3.36106e-17 -6.72203e-17 0)
(8.54891e-17 4.98731e-17 0)
(-1.61974e-17 2.7105e-17 0)
(9.84874e-17 -8.34833e-17 0)
(2.14277e-16 1.19262e-17 0)
(8.4519e-17 0 0)
(4.03116e-17 6.50519e-17 0)
(1.42607e-16 2.07082e-16 0)
(2.6279e-17 3.26344e-16 0)
(-8.02286e-20 2.65629e-16 0)
(-3.14497e-17 6.39677e-17 0)
(-1.35982e-16 1.19262e-17 0)
(1.02631e-17 1.43114e-16 0)
(1.41361e-16 3.29596e-16 0)
(3.89374e-18 1.24683e-16 0)
(-3.35651e-16 9.75778e-18 0)
(-5.63212e-16 8.13149e-17 0)
(-4.04363e-16 -8.02307e-17 0)
(-1.26793e-16 1.6263e-17 0)
(1.1261e-16 -2.32018e-16 0)
(3.33156e-16 -2.45029e-16 0)
(3.39101e-16 2.49366e-17 0)
(7.97231e-17 2.90565e-16 0)
(-2.21603e-16 1.91903e-16 0)
(-4.37957e-16 -9.43252e-17 0)
(-3.88464e-16 -3.06828e-16 0)
(-2.86353e-16 -2.66713e-16 0)
(-3.64291e-16 -3.69712e-16 0)
(0 0 0)
(6.88152e-17 -2.81892e-17 0)
(1.25246e-16 -3.53449e-16 0)
(-5.36896e-17 -6.63529e-16 0)
(-2.12014e-16 -3.59954e-16 0)
(-5.13573e-17 -1.51788e-17 0)
(8.00877e-17 0 0)
(3.71063e-17 0 0)
(-4.74489e-17 0 0)
(1.24402e-16 0 0)
(4.06139e-16 0 0)
(6.31334e-19 1.27935e-16 0)
(-3.52727e-16 0 0)
(-6.02481e-17 -5.20415e-17 0)
(1.66066e-16 0 0)
(2.32319e-17 -9.32411e-17 0)
(-2.26505e-16 0 0)
(-9.16684e-17 0 0)
(-1.5836e-17 -1.14925e-16 0)
(-1.04888e-17 0 0)
(1.75003e-16 0 0)
(3.82237e-18 -9.32411e-17 0)
(-1.58049e-16 -4.55363e-17 0)
(-1.75376e-17 0 0)
(1.51212e-18 0 0)
(-6.51364e-18 0 0)
(-2.05571e-18 0 0)
(4.49198e-19 0 0)
(-4.19763e-18 0 0)
(-5.4319e-20 0 0)
(-3.19167e-17 0 0)
(-2.23204e-16 0 0)
(9.69275e-17 -9.75778e-17 0)
(2.66614e-12 -2.05998e-16 0)
(1.20003e-08 -7.17739e-16 0)
(5.57596e-06 -3.60389e-15 0)
(0.000377665 -1.25807e-16 0)
(0.00560448 1.15363e-14 0)
(0.0285518 -1.09518e-14 0)
(0.0754542 6.05695e-15 0)
(0.138918 -5.00803e-15 0)
(0.210737 -7.07715e-15 0)
(0.286734 1.50859e-14 0)
(0.365179 -1.31013e-14 0)
(0.445376 2.57409e-15 0)
(0.527162 1.34624e-15 0)
(0.610458 -4.13458e-16 0)
(0.695398 -1.69397e-15 0)
(0.780691 1.89362e-15 0)
(0.861985 -2.61952e-15 0)
(0.923075 6.59716e-16 0)
(0.944714 1.5823e-15 0)
(0.923243 -2.33528e-16 0)
(0.925431 -4.33521e-16 0)
(0.927166 1.061e-15 0)
(0.927605 -1.23477e-16 0)
(0.927885 -1.36573e-15 0)
(0.928744 -3.88293e-17 0)
(0.931671 -3.35748e-15 0)
(0.926524 -2.14233e-15 0)
(0.921054 1.57136e-16 0)
(0.936205 1.30336e-15 0)
(0.944403 1.14904e-15 0)
(0.941802 8.90438e-17 0)
(0.906567 7.78088e-16 0)
(0.713774 -9.39733e-16 0)
(0.24701 1.8739e-16 0)
(0.0114724 1.00269e-15 0)
(4.11912e-05 -8.99851e-17 0)
(8.40737e-09 1.23599e-16 0)
(2.30187e-13 2.5045e-16 0)
(-2.78671e-16 0 0)
(-8.32771e-17 -1.51788e-17 0)
(8.77105e-17 -1.01915e-16 0)
(-1.52071e-17 -3.68627e-17 0)
(1.09985e-16 -2.27682e-17 0)
(2.33347e-16 0 0)
(7.15906e-17 0 0)
(8.73802e-17 2.1684e-18 0)
(2.04524e-16 0 0)
(6.04607e-17 0 0)
(-1.33667e-18 0 0)
(-1.46716e-17 0 0)
(-1.28557e-16 0 0)
(6.34823e-17 5.42099e-18 0)
(2.27074e-16 1.68051e-16 0)
(2.00171e-17 0 0)
(-3.30635e-16 0 0)
(-5.76421e-16 0 0)
(-3.87265e-16 0 0)
(-2.2094e-16 -1.6263e-17 0)
(2.92619e-17 -9.43252e-17 0)
(3.4036e-16 -9.8662e-17 0)
(4.30161e-16 0 0)
(1.60426e-16 0 0)
(-2.72977e-16 0 0)
(-5.36121e-16 5.63783e-17 0)
(-3.78547e-16 -9.97462e-17 0)
(-1.85096e-16 -9.21569e-17 0)
(-1.70219e-16 -1.76724e-16 0)
(1.45283e-16 1.99492e-16 0)
(1.43313e-16 0 0)
(-1.31163e-16 -1.27935e-16 0)
(-7.14669e-17 -3.49112e-16 0)
(-1.1188e-17 -9.75778e-17 0)
(3.45075e-17 0 0)
(2.69051e-16 6.07151e-17 0)
(7.84841e-17 2.34187e-16 0)
(-8.98024e-17 1.10588e-16 0)
(1.33428e-16 -2.1684e-18 0)
(4.16109e-16 0 0)
(4.93507e-17 0 0)
(-3.18337e-16 0 0)
(-3.08548e-17 -7.37255e-17 0)
(1.95045e-16 0 0)
(2.96101e-17 9.32411e-17 0)
(-2.22795e-16 6.50519e-17 0)
(-1.93887e-16 0 0)
(-4.76687e-17 0 0)
(2.14474e-17 0 0)
(2.19621e-16 0 0)
(2.82249e-18 9.32411e-17 0)
(-1.95301e-16 0 0)
(-1.85991e-17 0 0)
(2.31696e-18 0 0)
(-4.05118e-17 0 0)
(-1.59213e-17 0 0)
(-2.66002e-18 0 0)
(-4.36671e-17 0 0)
(-8.50655e-19 0 0)
(-8.41663e-17 0 0)
(-2.99861e-16 -1.60461e-16 0)
(3.97015e-17 -3.49112e-16 0)
(2.6662e-12 8.23991e-17 0)
(1.20003e-08 -6.8955e-16 0)
(5.57596e-06 -4.30212e-15 0)
(0.000377665 -4.59847e-16 0)
(0.00560448 -2.47721e-15 0)
(0.0285518 4.37338e-15 0)
(0.0754542 -4.02987e-15 0)
(0.138918 -2.26338e-15 0)
(0.210737 -6.68831e-15 0)
(0.286734 7.77034e-15 0)
(0.365179 -7.63014e-15 0)
(0.445376 -6.75618e-16 0)
(0.527162 -9.63828e-16 0)
(0.610458 1.10942e-15 0)
(0.695398 -1.97984e-15 0)
(0.780691 3.45365e-15 0)
(0.861985 -4.37779e-16 0)
(0.923075 3.54964e-15 0)
(0.944714 3.16719e-15 0)
(0.923243 -1.39737e-16 0)
(0.925431 6.42312e-16 0)
(0.927166 -6.71696e-16 0)
(0.927605 -7.37905e-16 0)
(0.927885 -1.11642e-15 0)
(0.928744 -4.09742e-16 0)
(0.931671 -3.4988e-15 0)
(0.926524 -2.07756e-15 0)
(0.921054 -8.89437e-16 0)
(0.936205 -1.95175e-16 0)
(0.944403 5.65134e-16 0)
(0.941802 3.96372e-16 0)
(0.906567 -1.03152e-15 0)
(0.713774 -8.73701e-16 0)
(0.24701 -4.16966e-15 0)
(0.0114724 1.74666e-15 0)
(4.11912e-05 -1.08416e-17 0)
(8.40737e-09 -3.57785e-16 0)
(2.30173e-13 -1.37693e-16 0)
(-2.27012e-16 -1.85398e-16 0)
(-6.04848e-17 -1.40946e-16 0)
(8.49208e-17 -2.85144e-16 0)
(-1.72182e-17 -1.82145e-16 0)
(1.22722e-16 -4.22837e-17 0)
(2.82744e-16 -9.21569e-17 0)
(1.25717e-16 -1.24683e-16 0)
(7.81543e-18 1.84314e-17 0)
(-2.05689e-17 -1.20346e-16 0)
(-2.38322e-18 -2.52618e-16 0)
(3.95999e-17 -2.53702e-16 0)
(1.49329e-16 -1.91903e-16 0)
(3.90085e-17 -5.09573e-17 0)
(8.32392e-17 7.04729e-17 0)
(1.12105e-16 2.1684e-17 0)
(-1.33074e-18 0 0)
(-2.82271e-16 0 0)
(-5.11335e-16 1.0842e-18 0)
(-4.80491e-16 1.02999e-16 0)
(-2.95451e-16 -8.02307e-17 0)
(7.22095e-17 -1.0842e-18 0)
(3.81141e-16 0 0)
(4.24563e-16 -7.69781e-17 0)
(2.39152e-16 -1.92987e-16 0)
(-8.62926e-17 2.27682e-17 0)
(-4.06646e-16 2.27682e-16 0)
(-5.28792e-16 1.25767e-16 0)
(-3.61639e-16 1.71303e-16 0)
(-2.47197e-16 1.70219e-16 0)
(4.4669e-16 4.74879e-16 0)
(2.05887e-16 1.84314e-16 0)
(-2.0701e-16 1.36609e-16 0)
(-2.58713e-16 -1.34441e-16 0)
(-4.62283e-17 2.1684e-18 0)
(1.70978e-16 6.50519e-18 0)
(3.51451e-16 3.18754e-16 0)
(1.14983e-16 5.52941e-16 0)
(-7.11854e-17 3.66459e-16 0)
(1.68702e-16 1.25767e-16 0)
(3.31822e-16 1.34441e-16 0)
(6.3299e-17 -1.34441e-16 0)
(-2.38258e-16 -7.80623e-17 0)
(-2.92658e-17 -2.68881e-16 0)
(2.07513e-16 -6.72203e-17 0)
(3.38615e-17 2.38524e-17 0)
(-2.37291e-16 2.9707e-16 0)
(-3.43995e-16 1.14925e-16 0)
(-1.05145e-16 0 0)
(5.97186e-17 0 0)
(2.39215e-16 0 0)
(-4.67708e-18 -3.03576e-17 0)
(-1.90386e-16 0 0)
(-8.02094e-18 0 0)
(-1.17359e-17 0 0)
(-1.52455e-16 0 0)
(-6.41987e-17 0 0)
(-1.73965e-17 0 0)
(-1.31458e-16 0 0)
(-7.24877e-18 0 0)
(-1.32961e-16 0 0)
(-4.01773e-16 8.67359e-18 0)
(4.10708e-17 1.95156e-17 0)
(2.66691e-12 7.22076e-16 0)
(1.20003e-08 -6.17993e-16 0)
(5.57596e-06 8.23995e-17 0)
(0.000377665 -3.61587e-15 0)
(0.00560448 -6.93705e-15 0)
(0.0285518 7.87474e-15 0)
(0.0754542 -4.94339e-15 0)
(0.138918 -2.84603e-15 0)
(0.210737 -1.63729e-15 0)
(0.286734 -1.89147e-16 0)
(0.365179 -2.11866e-16 0)
(0.445376 -4.01038e-15 0)
(0.527162 -3.60094e-15 0)
(0.610458 1.72867e-15 0)
(0.695398 -1.91293e-15 0)
(0.780691 3.24998e-15 0)
(0.861985 2.15311e-15 0)
(0.923075 3.41764e-15 0)
(0.944714 2.42794e-15 0)
(0.923243 -1.26745e-16 0)
(0.925431 1.71783e-15 0)
(0.927166 -2.29942e-15 0)
(0.927605 -2.56707e-15 0)
(0.927885 -5.82865e-16 0)
(0.928744 -2.16409e-15 0)
(0.931671 -3.82676e-15 0)
(0.926524 -9.44178e-16 0)
(0.921054 -1.84722e-15 0)
(0.936205 -7.25442e-16 0)
(0.944403 -1.07497e-15 0)
(0.941802 1.40435e-16 0)
(0.906567 -1.98816e-15 0)
(0.713774 -8.08892e-16 0)
(0.24701 -5.41123e-15 0)
(0.0114724 -6.10847e-16 0)
(4.11912e-05 5.64846e-16 0)
(8.40737e-09 -1.50487e-15 0)
(2.30457e-13 -2.0925e-16 0)
(-1.33095e-16 -3.77301e-16 0)
(-7.58369e-17 -1.99492e-16 0)
(9.76877e-17 -1.06251e-16 0)
(-5.30075e-18 -7.91465e-17 0)
(5.71858e-17 -8.89043e-17 0)
(1.88925e-16 -2.22261e-16 0)
(1.11855e-16 -2.95986e-16 0)
(1.02101e-17 -1.95156e-16 0)
(-1.10561e-16 -3.16586e-16 0)
(-8.94998e-19 -4.71626e-16 0)
(7.68456e-17 -4.73795e-16 0)
(2.22667e-16 -4.03322e-16 0)
(1.08813e-16 -2.37439e-16 0)
(1.31708e-16 -7.04729e-17 0)
(1.33793e-16 0 0)
(9.60027e-19 0 0)
(-8.83131e-17 -6.72203e-17 0)
(-3.43281e-16 6.93887e-17 0)
(-5.10707e-16 2.75386e-16 0)
(-2.85851e-16 1.25767e-16 0)
(2.85634e-17 9.75778e-18 0)
(3.08199e-16 9.10727e-17 0)
(4.57247e-16 -2.27682e-16 0)
(3.10328e-16 -3.94648e-16 0)
(9.16497e-17 -1.56125e-16 0)
(-3.15924e-16 5.09573e-17 0)
(-4.80332e-16 2.73218e-16 0)
(-3.57698e-16 3.94648e-16 0)
(-4.58616e-16 3.82722e-16 0)
(6.63529e-16 2.53702e-16 0)
(2.71581e-16 1.04083e-16 0)
(-2.1102e-16 8.02307e-17 0)
(-3.23685e-16 1.6263e-16 0)
(1.11661e-17 9.32411e-17 0)
(3.40379e-16 2.58039e-16 0)
(5.34217e-16 1.64798e-16 0)
(1.72652e-16 2.8406e-16 0)
(-2.52637e-16 1.86482e-16 0)
(2.7205e-16 3.25259e-16 0)
(-3.25218e-17 1.95156e-17 0)
(-1.57399e-16 -2.53702e-16 0)
(-1.91487e-16 4.81481e-34 0)
(-6.76252e-17 9.10727e-17 0)
(2.39537e-16 -4.81481e-34 0)
(2.49315e-16 -1.92987e-16 0)
(-6.05811e-17 9.97462e-17 0)
(-4.26375e-16 2.34187e-16 0)
(-1.55293e-16 8.23991e-17 0)
(7.37587e-17 1.8865e-16 0)
(-1.59563e-16 2.60208e-17 0)
(-1.26566e-16 -2.53702e-16 0)
(1.39092e-16 3.46943e-17 0)
(2.3229e-16 2.60208e-16 0)
(-8.49842e-17 1.17093e-16 0)
(-3.25486e-16 2.38524e-17 0)
(-1.49735e-16 0 0)
(-3.9529e-17 0 0)
(-2.10342e-16 2.60208e-17 0)
(-3.37726e-17 -4.33679e-18 0)
(1.47897e-17 2.60208e-17 0)
(-1.69817e-16 2.08166e-16 0)
(3.6823e-16 3.90311e-16 0)
(2.66769e-12 6.00646e-16 0)
(1.20003e-08 -4.33679e-16 0)
(5.57596e-06 3.38705e-15 0)
(0.000377665 -8.10806e-15 0)
(0.00560448 -4.55571e-15 0)
(0.0285518 -7.276e-16 0)
(0.0754542 2.47921e-15 0)
(0.138918 -7.1798e-15 0)
(0.210737 3.91571e-15 0)
(0.286734 -9.93858e-15 0)
(0.365179 5.38765e-15 0)
(0.445376 -5.88157e-15 0)
(0.527162 -3.09221e-15 0)
(0.610458 2.03923e-16 0)
(0.695398 -1.83994e-15 0)
(0.780691 3.13218e-15 0)
(0.861985 -1.1356e-15 0)
(0.923075 3.67597e-15 0)
(0.944714 4.39765e-15 0)
(0.923243 2.21297e-15 0)
(0.925431 2.8147e-16 0)
(0.927166 -4.59819e-16 0)
(0.927605 -2.43735e-15 0)
(0.927885 -3.76705e-18 0)
(0.928744 -2.80976e-15 0)
(0.931671 -3.18237e-15 0)
(0.926524 -9.25211e-17 0)
(0.921054 -9.76734e-16 0)
(0.936205 -1.00731e-15 0)
(0.944403 -2.62376e-15 0)
(0.941802 -1.04461e-15 0)
(0.906567 -1.93475e-15 0)
(0.713774 -1.40318e-15 0)
(0.24701 -9.87573e-16 0)
(0.0114724 -5.75527e-15 0)
(4.11912e-05 1.10476e-15 0)
(8.40738e-09 -1.43114e-15 0)
(2.30278e-13 -1.95156e-16 0)
(-3.26505e-17 -1.8323e-16 0)
(7.93885e-17 -6.28835e-17 0)
(1.33635e-17 3.68627e-17 0)
(-8.95252e-17 -6.61361e-17 0)
(-6.23036e-17 3.46943e-17 0)
(8.53046e-17 -8.99885e-17 0)
(1.68266e-16 -1.2902e-16 0)
(-7.9578e-18 -7.91465e-17 0)
(-1.68834e-16 -1.9624e-16 0)
(4.75719e-18 -2.15755e-16 0)
(1.24519e-16 -2.47197e-16 0)
(2.90733e-16 -2.08166e-16 0)
(1.9029e-16 -2.40692e-16 0)
(2.31583e-16 -9.21569e-17 0)
(1.60597e-16 0 0)
(1.59783e-17 -9.32411e-17 0)
(4.20355e-17 -2.39608e-16 0)
(-4.38168e-17 -7.58939e-18 0)
(-2.79721e-16 2.28766e-16 0)
(-2.69303e-16 3.31765e-16 0)
(-6.97275e-17 1.34441e-16 0)
(1.67708e-16 0 0)
(2.50897e-16 -1.51788e-16 0)
(4.26652e-16 -2.43945e-16 0)
(2.2789e-16 -6.93887e-17 0)
(-1.33265e-16 -1.04083e-16 0)
(-3.4437e-16 1.33356e-16 0)
(-4.26009e-16 2.0925e-16 0)
(-5.8872e-16 2.58039e-16 0)
(4.597e-16 -2.1684e-18 0)
(1.89832e-16 2.55871e-16 0)
(-1.42333e-16 2.62376e-16 0)
(-1.07342e-16 4.44521e-16 0)
(1.6704e-16 3.46943e-16 0)
(4.16165e-16 5.91972e-16 0)
(3.49489e-16 3.44775e-16 0)
(3.13783e-17 1.23599e-16 0)
(-6.99551e-17 1.97324e-16 0)
(-9.47704e-17 -4.55363e-17 0)
(-3.21393e-16 -3.01407e-16 0)
(-7.31622e-17 -5.20415e-17 0)
(-2.06282e-16 2.40692e-16 0)
(-5.76702e-18 4.57532e-16 0)
(2.24694e-16 2.2985e-16 0)
(9.19214e-17 -1.0842e-17 0)
(2.65112e-17 1.40946e-16 0)
(-2.32481e-16 3.98985e-16 0)
(-4.69913e-17 2.99239e-16 0)
(6.31133e-17 4.83552e-16 0)
(-1.7313e-16 2.49366e-16 0)
(-1.24467e-16 6.28835e-17 0)
(1.46694e-16 2.55871e-16 0)
(2.30939e-16 5.8113e-16 0)
(-1.28307e-16 3.75133e-16 0)
(-4.95214e-16 2.27682e-16 0)
(-2.4198e-16 2.81892e-17 0)
(-4.64942e-17 6.50519e-17 0)
(-2.31095e-16 2.38524e-17 0)
(-6.46501e-17 -1.60461e-16 0)
(1.19145e-16 0 0)
(9.17203e-17 0 0)
(4.21222e-16 2.23345e-16 0)
(2.66817e-12 9.21569e-16 0)
(1.20003e-08 -1.18394e-15 0)
(5.57596e-06 1.26852e-15 0)
(0.000377665 -4.32083e-15 0)
(0.00560448 -7.40765e-17 0)
(0.0285518 -9.93202e-15 0)
(0.0754542 9.93881e-15 0)
(0.138918 -8.70542e-15 0)
(0.210737 6.70262e-15 0)
(0.286734 -1.75893e-14 0)
(0.365179 7.32279e-15 0)
(0.445376 -5.30705e-15 0)
(0.527162 -2.30661e-15 0)
(0.610458 -2.73331e-15 0)
(0.695398 -3.86642e-15 0)
(0.780691 2.66648e-15 0)
(0.861985 2.81515e-16 0)
(0.923075 3.8146e-15 0)
(0.944714 4.25277e-15 0)
(0.923243 2.4145e-15 0)
(0.925431 -2.81151e-16 0)
(0.927166 5.7574e-16 0)
(0.927605 -1.50569e-15 0)
(0.927885 -1.08217e-15 0)
(0.928744 -2.16741e-15 0)
(0.931671 -7.81997e-16 0)
(0.926524 -1.6973e-15 0)
(0.921054 8.18102e-17 0)
(0.936205 -1.25622e-15 0)
(0.944403 -8.50745e-16 0)
(0.941802 -1.83227e-15 0)
(0.906567 -2.93066e-15 0)
(0.713774 -3.15425e-15 0)
(0.24701 3.62347e-15 0)
(0.0114724 -4.99842e-15 0)
(4.11912e-05 -7.56742e-16 0)
(8.40738e-09 1.23382e-15 0)
(2.30657e-13 3.57785e-17 0)
(7.75865e-18 1.53956e-16 0)
(1.11598e-16 4.98731e-17 0)
(9.79462e-18 -5.42099e-17 0)
(-9.17524e-17 4.98731e-17 0)
(4.32779e-17 1.60461e-16 0)
(2.25801e-16 1.76724e-16 0)
(1.02645e-16 1.30104e-17 0)
(-8.7919e-17 -7.69781e-17 0)
(-5.93978e-17 8.89043e-17 0)
(1.01296e-16 1.68051e-16 0)
(-7.87899e-20 6.61361e-17 0)
(7.97867e-17 6.28835e-17 0)
(2.23188e-16 -5.09573e-17 0)
(2.68661e-16 0 0)
(7.68608e-17 0 0)
(-9.27187e-17 -1.48535e-16 0)
(6.70438e-17 -5.52941e-17 0)
(1.54677e-16 0 0)
(-2.4662e-17 -1.95156e-17 0)
(-1.78437e-16 1.38777e-16 0)
(-1.36867e-16 3.68627e-17 0)
(3.98597e-17 1.19262e-16 0)
(1.71267e-16 1.68051e-16 0)
(3.23076e-16 7.58939e-17 0)
(1.20894e-16 -1.35525e-16 0)
(-2.18451e-16 -2.07082e-16 0)
(-4.03623e-16 -1.73472e-17 0)
(-3.8695e-16 1.40946e-17 0)
(-4.94394e-16 1.16009e-16 0)
(6.74371e-16 -2.27682e-16 0)
(2.97567e-16 -9.97462e-17 0)
(-1.25361e-16 -6.93887e-17 0)
(-1.53109e-16 1.71303e-16 0)
(1.9734e-16 1.64798e-16 0)
(5.14119e-16 2.77555e-16 0)
(1.84925e-16 -3.46943e-17 0)
(-2.87454e-17 -3.29596e-16 0)
(-2.94025e-16 -1.97324e-16 0)
(-4.56814e-16 -4.14164e-16 0)
(-1.08914e-16 -8.45675e-17 0)
(1.72794e-16 2.2985e-16 0)
(-2.45198e-17 5.85467e-17 0)
(-2.13959e-16 2.49366e-16 0)
(-3.14618e-17 -4.33679e-18 0)
(2.73621e-16 -4.98731e-17 0)
(1.94301e-16 -1.64798e-16 0)
(1.08835e-17 1.95156e-17 0)
(2.0747e-18 4.33679e-18 0)
(2.80569e-17 7.15571e-17 0)
(-1.5674e-16 -1.0842e-16 0)
(-9.89561e-17 4.33679e-18 0)
(1.47626e-16 8.02307e-17 0)
(5.34372e-17 1.97324e-16 0)
(-3.1774e-16 8.67359e-18 0)