/*--------------------------------*- C++ -*----------------------------------*\
| =========                 |                                                 |
| \\      /  F ield         | OpenFOAM: The Open Source CFD Toolbox           |
|  \\    /   O peration     | Version:  4.1                                   |
|   \\  /    A nd           | Web:      www.OpenFOAM.org                      |
|    \\/     M anipulation  |                                                 |
\*---------------------------------------------------------------------------*/
FoamFile
{
    version     2.0;
    format      ascii;
    class       volVectorField;
    location    "0.08";
    object      U;
}
// * * * * * * * * * * * * * * * * * * * * * * * * * * * * * * * * * * * * * //

dimensions      [0 1 -1 0 0 0 0];

internalField   nonuniform List<vector> 
10000
(
(0 0 0)
(1.10058e-17 0 0)
(9.9505e-17 0 0)
(1.35481e-17 9.32411e-17 0)
(-5.82382e-17 0 0)
(-9.97092e-18 0 0)
(-1.91282e-17 0 0)
(-1.72806e-19 0 0)
(2.68602e-32 0 0)
(7.99357e-17 1.0842e-16 0)
(2.75604e-16 0 0)
(-1.7954e-17 -1.47451e-16 0)
(-3.11052e-16 0 0)
(-3.70818e-17 0 0)
(1.10328e-16 0 0)
(5.29597e-18 9.97462e-17 0)
(-1.08352e-16 0 0)
(-6.60694e-18 0 0)
(-7.87626e-21 0 0)
(-8.53764e-19 0 0)
(7.12695e-22 0 0)
(-3.9965e-18 9.32411e-17 0)
(2.11839e-18 0 0)
(1.54229e-17 0 0)
(-8.69857e-20 0 0)
(-1.47707e-17 0 0)
(-2.077e-16 -1.17093e-16 0)
(2.82095e-19 6.93887e-17 0)
(1.97304e-16 0 0)
(1.77368e-18 1.2143e-16 0)
(-1.25428e-16 0 0)
(-1.70172e-23 -9.54094e-17 0)
(7.01508e-17 -2.1684e-18 0)
(-1.11772e-16 0 0)
(1.67975e-18 1.30104e-17 0)
(2.22765e-17 2.23345e-16 0)
(-7.23775e-17 2.1684e-17 0)
(2.39682e-17 0 0)
(-1.53311e-16 0 0)
(8.30154e-14 8.67359e-17 0)
(1.27564e-09 6.50519e-18 0)
(1.64512e-06 1.43114e-16 0)
(0.000242319 3.87355e-15 0)
(0.00610644 -1.95735e-15 0)
(0.0423668 4.20449e-16 0)
(0.130767 -5.63166e-15 0)
(0.258461 -4.20672e-15 0)
(0.408381 2.80362e-15 0)
(0.56313 -1.29369e-15 0)
(0.733587 -2.41195e-15 0)
(0.902351 3.61886e-15 0)
(0.958218 4.94587e-15 0)
(0.934511 5.20618e-15 0)
(0.936487 4.53202e-15 0)
(0.954617 1.10648e-15 0)
(0.926565 4.86431e-16 0)
(0.752585 1.21408e-15 0)
(0.317352 -8.03493e-16 0)
(0.0231563 -9.98583e-16 0)
(0.000151378 -1.19246e-16 0)
(6.58075e-08 6.71119e-16 0)
(2.11401e-12 1.86482e-16 0)
(5.64133e-17 0 0)
(1.07542e-16 -6.61361e-17 0)
(-7.10627e-18 -2.24429e-16 0)
(-1.09536e-16 -6.17993e-17 0)
(-5.25194e-18 0 0)
(1.55701e-21 0 0)
(9.11335e-17 0 0)
(2.51208e-16 0 0)
(4.53397e-17 0 0)
(-1.60373e-16 0 0)
(-4.00592e-18 1.09504e-16 0)
(-3.64639e-17 3.43691e-16 0)
(-1.45767e-16 1.45283e-16 0)
(3.46599e-17 0 0)
(2.28334e-16 0 0)
(2.85169e-17 0 0)
(-1.6288e-16 9.32411e-17 0)
(2.66024e-17 0 0)
(2.25659e-16 0 0)
(2.22898e-17 0 0)
(-1.81094e-16 0 0)
(2.19678e-17 0 0)
(2.20012e-16 6.83045e-17 0)
(7.78742e-17 0 0)
(-1.1296e-16 0 0)
(-6.8565e-18 0 0)
(-1.61109e-18 0 0)
(-3.0878e-17 0 0)
(-8.89822e-17 -6.50519e-18 0)
(-2.30786e-16 0 0)
(-6.09781e-17 0 0)
(5.52616e-17 0 0)
(2.20854e-16 0 0)
(1.68222e-17 0 0)
(-1.79037e-16 7.37255e-17 0)
(-6.62247e-17 0 0)
(-2.95596e-18 0 0)
(0 0 0)
(0 0 0)
(6.30967e-17 0 0)
(2.16026e-16 9.54094e-17 0)
(3.48154e-17 2.77555e-16 0)
(-1.49181e-16 9.54094e-17 0)
(-6.56105e-17 1.34441e-16 0)
(-1.07088e-16 0 0)
(-5.20967e-18 0 0)
(1.04259e-31 0 0)
(4.75608e-17 0 0)
(2.42918e-16 0 0)
(-3.19607e-19 0 0)
(-2.67672e-16 0 0)
(-3.54961e-18 0 0)
(1.93666e-16 1.01915e-16 0)
(8.51907e-18 2.8406e-16 0)
(-1.78666e-16 1.01915e-16 0)
(-3.25825e-17 0 0)
(-3.76284e-19 0 0)
(-1.83136e-17 0 0)
(6.23696e-20 0 0)
(-1.37105e-18 2.1684e-18 0)
(3.98541e-18 0 0)
(8.21202e-17 0 0)
(-2.59505e-18 1.2143e-16 0)
(-9.71815e-17 0 0)
(-8.95468e-17 6.72203e-17 0)
(-3.82051e-19 2.53702e-16 0)
(6.8742e-17 4.98731e-17 0)
(5.56276e-18 0 0)
(-1.66684e-16 0 0)
(-3.71645e-22 2.38524e-17 0)
(1.66684e-16 -8.45675e-17 0)
(7.41919e-19 0 0)
(1.14779e-17 1.34441e-16 0)
(3.59344e-17 4.03322e-16 0)
(-1.48791e-16 2.19008e-16 0)
(3.68887e-17 3.90311e-17 0)
(-1.35208e-16 0 0)
(8.33236e-14 4.03322e-16 0)
(1.27564e-09 -1.99492e-16 0)
(1.64512e-06 5.50773e-16 0)
(0.000242319 6.49351e-15 0)
(0.00610644 -9.66035e-15 0)
(0.0423668 9.51069e-16 0)
(0.130767 1.31782e-15 0)
(0.258461 -1.80113e-15 0)
(0.408381 1.09855e-16 0)
(0.56313 7.84873e-16 0)
(0.733587 8.1278e-17 0)
(0.902351 4.21e-15 0)
(0.958218 4.88381e-15 0)
(0.934511 4.26058e-15 0)
(0.936487 4.4061e-15 0)
(0.954617 1.61286e-15 0)
(0.926565 4.23393e-16 0)
(0.752585 1.81905e-15 0)
(0.317352 -7.82877e-15 0)
(0.0231563 -2.36087e-16 0)
(0.000151378 -1.24341e-15 0)
(6.58075e-08 7.51349e-16 0)
(2.11358e-12 2.74302e-16 0)
(8.16376e-17 0 0)
(1.15942e-16 7.48097e-17 0)
(-9.21301e-18 2.81892e-17 0)
(-1.46944e-16 8.56517e-17 0)
(-2.91211e-17 0 0)
(3.12894e-19 0 0)
(9.35733e-17 0 0)
(2.44763e-16 7.48097e-17 0)
(6.71729e-17 0 0)
(-9.01388e-17 0 0)
(1.43203e-17 5.52941e-17 0)
(-8.81081e-17 1.58293e-16 0)
(-1.91917e-16 5.52941e-17 0)
(1.34749e-17 3.46943e-17 0)
(2.17215e-16 0 0)
(1.68551e-17 2.60208e-17 0)
(-1.53327e-16 1.94071e-16 0)
(1.73348e-17 2.60208e-17 0)
(2.17664e-16 0 0)
(2.44762e-17 0 0)
(-1.72681e-16 0 0)
(3.38347e-17 3.36101e-17 0)
(2.18418e-16 1.70219e-16 0)
(5.61052e-17 4.33679e-18 0)
(-1.37281e-16 0 0)
(-2.47557e-17 0 0)
(-1.35604e-17 0 0)
(-8.5449e-17 -6.50519e-18 0)
(-5.60769e-17 -1.0842e-16 0)
(-1.62807e-16 8.67359e-18 0)
(-5.70171e-17 1.16009e-16 0)
(5.67631e-17 0 0)
(2.27048e-16 0 0)
(3.32492e-17 9.75778e-18 0)
(-1.33319e-16 1.7564e-16 0)
(-1.14908e-16 8.99885e-17 0)
(-3.11736e-17 2.1684e-18 0)
(0 9.32411e-17 0)
(0 0 0)
(1.56218e-16 0 0)
(4.38622e-16 0 0)
(6.14496e-17 6.72203e-17 0)
(-3.42999e-16 2.25513e-16 0)
(-1.63086e-16 4.0549e-16 0)
(-2.3078e-16 1.56125e-16 0)
(-3.71475e-17 0 0)
(-8.04861e-29 0 0)
(8.81936e-17 0 0)
(3.36812e-16 0 0)
(7.02141e-18 4.33679e-18 0)
(-3.00831e-16 0 0)
(1.17535e-18 1.40946e-16 0)
(3.05605e-16 0 0)
(8.61492e-18 5.63783e-17 0)
(-3.10102e-16 0 0)
(-7.21151e-17 0 0)
(-3.96017e-18 1.01915e-16 0)
(-1.07877e-16 0 0)
(1.36139e-18 0 0)
(4.95292e-17 0 0)
(2.3841e-17 6.72203e-17 0)
(1.64422e-16 2.03829e-16 0)
(-1.73456e-17 3.85975e-16 0)
(-2.52876e-16 1.51788e-16 0)
(-2.29465e-16 0 0)
(-2.16213e-18 3.90311e-17 0)
(1.9105e-16 0 0)
(3.66766e-17 0 0)
(1.06948e-25 5.85467e-17 0)
(-3.42068e-21 2.79723e-16 0)
(3.72272e-24 1.01915e-16 0)
(2.57183e-18 9.75778e-17 0)
(3.71592e-17 2.86228e-16 0)
(8.09469e-17 2.86228e-16 0)
(-1.04335e-16 4.70542e-16 0)
(-7.55594e-17 2.2985e-16 0)
(-3.08577e-16 1.25767e-16 0)
(8.36711e-14 6.07151e-16 0)
(1.27564e-09 -1.35308e-15 0)
(1.64512e-06 -1.53956e-16 0)
(0.000242319 3.62847e-15 0)
(0.00610644 -7.61581e-15 0)
(0.0423668 2.14272e-15 0)
(0.130767 1.35907e-15 0)
(0.258461 8.89699e-16 0)
(0.408381 -3.71341e-16 0)
(0.56313 2.60542e-15 0)
(0.733587 2.05095e-15 0)
(0.902351 1.28909e-15 0)
(0.958218 2.22672e-15 0)
(0.934511 2.19836e-15 0)
(0.936487 4.59537e-15 0)
(0.954617 6.85329e-16 0)
(0.926565 -9.51022e-16 0)
(0.752585 2.51577e-16 0)
(0.317352 -6.02324e-15 0)
(0.0231563 1.0826e-15 0)
(0.000151378 -3.16109e-15 0)
(6.58075e-08 9.8662e-16 0)
(2.11351e-12 3.94648e-16 0)
(1.1899e-16 1.50704e-16 0)
(1.69876e-16 2.53702e-16 0)
(-3.15054e-17 2.22261e-16 0)
(-2.30723e-16 2.65629e-16 0)
(-8.38646e-17 1.06251e-16 0)
(6.2242e-18 2.60208e-17 0)
(8.84452e-17 9.54094e-17 0)
(2.02415e-16 2.52618e-16 0)
(4.08844e-17 9.10727e-17 0)
(-1.23603e-16 7.26413e-17 0)
(-3.68898e-18 8.56517e-17 0)
(6.98525e-18 -1.73472e-17 0)
(-8.53811e-17 8.99885e-17 0)
(2.34513e-17 1.9624e-16 0)
(1.26755e-16 9.54094e-17 0)
(8.5549e-18 1.6263e-17 0)
(-1.3785e-16 9.32411e-17 0)
(-6.74687e-17 8.67359e-17 0)
(8.30027e-17 6.28835e-17 0)
(7.2335e-17 1.0842e-18 0)
(-2.98909e-17 1.05167e-16 0)
(7.16438e-17 1.95156e-16 0)
(1.60233e-16 5.85467e-17 0)
(4.63597e-18 -1.02999e-16 0)
(-1.42601e-16 -5.63783e-17 0)
(-4.19423e-17 5.20415e-17 0)
(-3.43223e-17 -4.98731e-17 0)
(-1.36033e-16 5.42099e-17 0)
(-3.33629e-17 -2.1684e-18 0)
(-3.06285e-17 1.40946e-16 0)
(-9.41448e-17 2.87313e-16 0)
(-4.02468e-17 1.27935e-16 0)
(1.56349e-16 4.44521e-17 0)
(1.35235e-16 -9.64936e-17 0)
(-6.21849e-17 4.98731e-17 0)
(-1.96155e-16 2.48281e-16 0)
(-9.52255e-17 1.47451e-16 0)
(-8.67359e-17 2.5045e-16 0)
(-2.1684e-18 -2.1684e-18 0)
(1.182e-16 -2.1684e-18 0)
(3.55958e-16 -2.1684e-18 0)
(1.18076e-16 3.90311e-17 0)
(-1.46137e-16 3.03576e-16 0)
(-2.24242e-16 5.85467e-17 0)
(-3.25062e-16 -2.1684e-18 0)
(-8.1856e-17 -2.1684e-18 0)
(-1.07853e-24 0 0)
(1.21012e-17 0 0)
(1.69548e-16 -4.33679e-18 0)
(3.15638e-17 -1.73472e-16 0)
(8.57832e-18 8.89043e-17 0)
(2.65791e-17 4.16332e-16 0)
(1.5868e-16 1.82145e-16 0)
(3.88279e-19 0 0)
(-1.27515e-16 -2.1684e-18 0)
(2.83386e-17 1.10588e-16 0)
(-1.59228e-17 3.53449e-16 0)
(-1.96956e-16 1.73472e-16 0)
(1.00089e-17 0 0)
(1.68702e-16 1.06251e-16 0)
(5.63321e-17 2.9707e-16 0)
(2.38525e-16 1.12757e-16 0)
(-6.3632e-17 3.25259e-17 0)
(-4.10021e-16 -2.1684e-18 0)
(-3.95614e-16 -4.33679e-18 0)
(-1.97711e-17 0 0)
(3.31155e-16 -2.1684e-18 0)
(8.38259e-17 0 0)
(-5.26141e-25 0 0)
(-2.54931e-20 5.85467e-17 0)
(2.43896e-23 0 0)
(7.5882e-18 -2.1684e-18 0)
(7.97241e-17 4.98731e-17 0)
(3.12533e-16 3.90311e-17 0)
(3.44599e-18 1.64798e-16 0)
(-3.01283e-16 4.77047e-17 0)
(-1.20301e-16 0 0)
(8.41594e-14 2.01661e-16 0)
(1.27563e-09 -2.08166e-15 0)
(1.64512e-06 -1.26418e-15 0)
(0.000242319 7.44997e-15 0)
(0.00610644 -7.22128e-15 0)
(0.0423668 4.66091e-15 0)
(0.130767 -1.11153e-15 0)
(0.258461 1.29719e-15 0)
(0.408381 -5.53916e-16 0)
(0.56313 -1.37127e-16 0)
(0.733587 -2.40984e-15 0)
(0.902351 -6.67259e-16 0)
(0.958218 5.47743e-16 0)
(0.934511 2.02592e-15 0)
(0.936487 2.47319e-15 0)
(0.954617 1.91784e-15 0)
(0.926565 -4.17933e-16 0)
(0.752585 -1.9333e-15 0)
(0.317352 5.37352e-16 0)
(0.0231563 -1.49947e-15 0)
(0.000151378 -6.3959e-17 0)
(6.58075e-08 1.50704e-16 0)
(2.11309e-12 1.60461e-16 0)
(1.65685e-16 2.95986e-16 0)
(8.06399e-17 1.65882e-16 0)
(-1.31208e-17 7.15571e-17 0)
(-1.30042e-16 1.89735e-16 0)
(-9.63248e-17 2.62376e-16 0)
(1.84648e-17 1.49619e-16 0)
(1.33491e-16 2.43945e-16 0)
(6.57061e-17 2.48281e-16 0)
(-6.73711e-17 1.2143e-16 0)
(-1.72187e-16 2.24429e-16 0)
(-3.08766e-17 2.11419e-16 0)
(1.55677e-17 1.06251e-16 0)
(7.13956e-17 2.08166e-16 0)
(4.04604e-18 2.4286e-16 0)
(2.82667e-17 2.62376e-16 0)
(-2.22701e-17 1.17093e-16 0)
(-1.6778e-16 1.02999e-16 0)
(-2.7894e-17 2.4286e-16 0)
(5.57098e-17 2.62376e-16 0)
(1.83355e-16 1.34441e-16 0)
(1.26149e-16 2.76471e-16 0)
(-5.97464e-17 2.67797e-16 0)
(-1.07962e-16 5.74625e-17 0)
(-9.93032e-18 -7.15571e-17 0)
(4.77908e-17 4.77047e-17 0)
(-4.46017e-17 1.16009e-16 0)
(-6.21556e-17 1.30104e-17 0)
(-2.84208e-17 1.14925e-16 0)
(6.07499e-18 1.30104e-17 0)
(2.89102e-17 7.37255e-17 0)
(-1.35564e-16 1.85398e-16 0)
(-1.58087e-16 3.07912e-16 0)
(-1.17797e-17 2.13587e-16 0)
(-1.54384e-17 7.04729e-17 0)
(1.01697e-16 0 0)
(-4.26946e-17 1.37693e-16 0)
(-1.30723e-16 1.86482e-16 0)
(-2.82976e-16 1.52872e-16 0)
(-2.1684e-18 2.1684e-18 0)
(1.98406e-16 2.1684e-18 0)
(5.02515e-16 2.1684e-18 0)
(1.56569e-16 1.6263e-16 0)
(-3.22121e-16 -5.42099e-17 0)
(-3.91254e-16 -4.01153e-16 0)
(-1.21063e-16 -1.32272e-16 0)
(4.24043e-20 2.1684e-18 0)
(-1.38416e-21 0 0)
(5.9537e-17 -2.1684e-18 0)
(2.68635e-16 -6.07151e-17 0)
(8.73295e-17 1.14925e-16 0)
(2.67393e-16 0 0)
(8.61936e-17 7.58939e-17 0)
(1.74953e-16 -3.46943e-17 0)
(-5.17996e-18 9.10727e-17 0)
(-2.2397e-16 2.1684e-18 0)
(-1.0503e-18 2.1684e-18 0)
(-4.73665e-17 -1.30104e-17 0)
(-2.62e-16 0 0)
(4.15579e-17 0 0)
(2.52056e-16 2.55871e-16 0)
(4.52379e-18 3.46943e-17 0)
(-5.04456e-17 -7.15571e-17 0)
(1.93744e-21 -3.23091e-16 0)
(-1.69316e-16 -1.32272e-16 0)
(-1.6776e-16 -1.0842e-16 0)
(5.14281e-17 0 0)
(8.43957e-17 2.1684e-18 0)
(8.1068e-25 0 0)
(-1.05103e-21 0 0)
(-6.09156e-19 0 0)
(7.85525e-21 0 0)
(3.83169e-17 2.1684e-18 0)
(2.02381e-16 0 0)
(1.01323e-16 9.32411e-17 0)
(-8.10076e-17 -9.32411e-17 0)
(-1.58632e-16 2.1684e-18 0)
(-3.08693e-16 0 0)
(8.37267e-14 1.60461e-16 0)
(1.27563e-09 2.90565e-16 0)
(1.64512e-06 -2.89915e-15 0)
(0.000242319 1.42905e-14 0)
(0.00610644 -1.29429e-14 0)
(0.0423668 1.27855e-14 0)
(0.130767 -6.65582e-15 0)
(0.258461 -2.25481e-16 0)
(0.408381 6.18901e-16 0)
(0.56313 -2.11104e-15 0)
(0.733587 -9.56336e-16 0)
(0.902351 -1.37493e-15 0)
(0.958218 -2.04459e-15 0)
(0.934511 -2.63538e-16 0)
(0.936487 -2.75966e-15 0)
(0.954617 1.02261e-16 0)
(0.926565 4.45729e-16 0)
(0.752585 -3.14205e-15 0)
(0.317352 7.14526e-15 0)
(0.0231563 -6.03297e-15 0)
(0.000151378 1.57404e-15 0)
(6.58075e-08 1.76724e-16 0)
(2.11364e-12 3.46943e-17 0)
(3.36456e-17 1.5504e-16 0)
(-1.04254e-16 -2.1684e-17 0)
(-3.30808e-24 0 0)
(5.50755e-17 -1.0842e-17 0)
(-4.72633e-17 9.10727e-17 0)
(3.31199e-17 1.40946e-16 0)
(1.65111e-16 6.17993e-17 0)
(3.99261e-17 7.58939e-17 0)
(2.82664e-19 9.75778e-18 0)
(-6.52949e-17 1.12757e-16 0)
(-5.47934e-18 3.14417e-17 0)
(4.36975e-17 1.26851e-16 0)
(-3.71751e-17 1.34441e-16 0)
(1.7685e-17 4.87889e-17 0)
(9.49032e-17 1.48535e-16 0)
(1.14993e-17 4.87889e-17 0)
(-3.66663e-17 1.11672e-16 0)
(4.03283e-17 2.54787e-16 0)
(-1.04292e-18 3.0466e-16 0)
(7.17566e-17 2.46113e-16 0)
(-3.08871e-18 1.22514e-16 0)
(-3.04306e-17 1.07336e-16 0)
(-1.36208e-16 1.6263e-16 0)
(-3.11328e-17 1.01915e-16 0)
(3.21092e-17 2.03829e-16 0)
(-8.72196e-17 8.78201e-17 0)
(-1.58115e-16 1.24683e-16 0)
(-1.0187e-16 -3.36101e-17 0)
(8.01393e-18 -9.10727e-17 0)
(1.74535e-16 -8.02307e-17 0)
(9.017e-17 -4.33679e-17 0)
(5.8959e-17 1.77809e-16 0)
(2.21842e-17 3.0466e-16 0)
(-5.0975e-17 2.69965e-16 0)
(-5.62291e-17 6.72203e-17 0)
(-1.10802e-16 -1.24683e-16 0)
(-2.19798e-16 -1.84314e-17 0)
(-3.40438e-16 -1.24683e-16 0)
(0 0 0)
(1.03372e-16 0 0)
(3.5884e-16 0 0)
(1.16075e-17 -1.6263e-16 0)
(-3.9118e-16 -4.29343e-16 0)
(-1.17967e-16 -1.56125e-16 0)
(-2.70908e-18 0 0)
(1.79868e-19 0 0)
(-2.29513e-19 0 0)
(1.21598e-16 2.1684e-18 0)
(3.7234e-16 1.23599e-16 0)
(1.39084e-16 2.7105e-16 0)
(-1.1079e-16 1.30104e-17 0)
(5.99289e-17 -2.34187e-16 0)
(2.41043e-16 -6.50519e-17 0)
(-2.25912e-17 -9.32411e-17 0)
(-3.38289e-16 0 0)
(-6.25022e-17 -9.97462e-17 0)
(-2.15188e-19 -3.77301e-16 0)
(-5.24413e-17 -1.36609e-16 0)
(1.84407e-16 0 0)
(1.75831e-17 1.95156e-17 0)
(-2.25084e-16 -2.23345e-16 0)
(-4.28605e-17 -4.33679e-17 0)
(5.86417e-21 -8.23991e-17 0)
(-8.31686e-24 0 0)
(-1.3226e-22 1.12757e-16 0)
(9.45912e-22 0 0)
(3.93198e-20 0 0)
(-2.50818e-24 0 0)
(-1.66425e-19 0 0)
(-1.72908e-17 0 0)
(4.17657e-19 0 0)
(9.58653e-17 0 0)
(3.49362e-16 0 0)
(2.39642e-17 -8.67359e-17 0)
(-2.66171e-16 0 0)
(-7.96997e-17 0 0)
(-6.91645e-17 0 0)
(8.46777e-14 2.55871e-16 0)
(1.27563e-09 2.19008e-15 0)
(1.64512e-06 -6.05634e-15 0)
(0.000242319 9.968e-15 0)
(0.00610644 -1.17441e-14 0)
(0.0423668 1.19491e-14 0)
(0.130767 -8.82306e-15 0)
(0.258461 5.51478e-16 0)
(0.408381 1.47608e-15 0)
(0.56313 -3.87926e-16 0)
(0.733587 1.41762e-15 0)
(0.902351 -1.78124e-15 0)
(0.958218 -2.72219e-15 0)
(0.934511 -2.27306e-15 0)
(0.936487 -3.35032e-15 0)
(0.954617 -9.60268e-16 0)
(0.926565 3.31071e-16 0)
(0.752585 -4.58285e-15 0)
(0.317352 6.79547e-15 0)
(0.0231563 -6.33605e-15 0)
(0.000151378 7.15473e-17 0)
(6.58075e-08 1.02782e-15 0)
(2.11317e-12 2.46113e-16 0)
(-1.11718e-16 -3.25259e-17 0)
(-4.38703e-17 -1.33356e-16 0)
(-1.22701e-21 -3.25259e-17 0)
(1.32353e-17 -1.34441e-16 0)
(4.20187e-17 -3.25259e-17 0)
(-6.39714e-17 9.87036e-33 0)
(3.77476e-17 -1.02999e-16 0)
(1.28788e-16 -1.19262e-17 0)
(3.45563e-18 0 0)
(-1.23719e-16 -1.30104e-17 0)
(-2.20383e-17 -1.13841e-16 0)
(6.13694e-17 -1.0842e-17 0)
(-4.31335e-17 -2.1684e-17 0)
(5.93935e-17 -1.24683e-16 0)
(1.61766e-16 -2.1684e-17 0)
(3.90411e-17 0 0)
(7.18408e-18 -1.84314e-17 0)
(8.52332e-17 8.45675e-17 0)
(-2.68116e-18 1.27935e-16 0)
(1.49281e-20 9.21569e-17 0)
(-1.77994e-17 0 0)
(-9.99109e-17 0 0)
(-1.67297e-17 3.36101e-17 0)
(1.25434e-16 1.76724e-16 0)
(4.40968e-18 6.28835e-17 0)
(-1.33243e-16 0 0)
(-2.97891e-16 5.96309e-17 0)
(-2.26447e-16 -5.85467e-17 0)
(-7.84081e-17 1.19262e-17 0)
(6.91686e-17 -1.86482e-16 0)
(2.63507e-16 -2.13587e-16 0)
(2.62869e-16 -2.60208e-17 0)
(4.13033e-17 1.27935e-16 0)
(-1.20326e-16 9.54094e-17 0)
(-2.28456e-16 -9.75778e-17 0)
(-1.97587e-16 -2.89481e-16 0)
(-9.46219e-17 -1.8865e-16 0)
(-1.65882e-16 -2.90565e-16 0)
(0 0 0)
(3.93757e-18 0 0)
(1.06275e-16 -1.84314e-16 0)
(-2.29339e-17 -4.44521e-16 0)
(-1.16284e-16 -1.7564e-16 0)
(-1.36286e-18 0 0)
(5.05833e-18 0 0)
(3.77725e-18 0 0)
(-7.04188e-18 0 0)
(1.07419e-16 0 0)
(3.68111e-16 0 0)
(1.89765e-19 6.07151e-17 0)
(-3.64235e-16 0 0)
(-8.86893e-17 -5.20415e-17 0)
(7.22127e-17 0 0)
(1.26072e-17 -9.32411e-17 0)
(-1.57827e-16 0 0)
(-6.51211e-18 0 0)
(-1.10771e-18 -1.14925e-16 0)
(-1.1152e-18 0 0)
(5.69513e-17 0 0)
(-1.21531e-18 -9.32411e-17 0)
(-8.70246e-17 -4.55363e-17 0)
(-2.06037e-18 0 0)
(2.43346e-20 0 0)
(-6.82859e-21 0 0)
(-8.67275e-22 0 0)
(8.67252e-20 0 0)
(-1.0091e-19 0 0)
(-1.10188e-21 0 0)
(-4.45111e-18 0 0)
(-1.01124e-16 0 0)
(4.47956e-18 -9.75778e-17 0)
(1.21594e-16 0 0)
(1.53109e-16 -1.40946e-16 0)
(-9.03813e-18 -3.85975e-16 0)
(-8.42728e-17 -1.32272e-16 0)
(-1.00419e-18 0 0)
(2.07806e-17 0 0)
(8.43015e-14 -1.95156e-16 0)
(1.27563e-09 4.87889e-16 0)
(1.64512e-06 -1.89735e-15 0)
(0.000242319 3.04288e-15 0)
(0.00610644 -3.04066e-15 0)
(0.0423668 6.85872e-15 0)
(0.130767 -3.97893e-15 0)
(0.258461 2.78999e-15 0)
(0.408381 8.13855e-16 0)
(0.56313 -2.54407e-16 0)
(0.733587 -7.12502e-16 0)
(0.902351 9.83972e-16 0)
(0.958218 1.3643e-15 0)
(0.934511 -4.53773e-18 0)
(0.936487 -1.08293e-15 0)
(0.954617 2.28742e-17 0)
(0.926565 -6.2144e-16 0)
(0.752585 -2.17836e-15 0)
(0.317352 3.3162e-15 0)
(0.0231563 -1.32187e-15 0)
(0.000151378 -6.23329e-16 0)
(6.58075e-08 2.32018e-16 0)
(2.11308e-12 1.51788e-16 0)
(-1.33058e-16 0 0)
(-3.7085e-17 -3.25259e-17 0)
(1.26151e-19 -5.52941e-17 0)
(3.55071e-17 -3.25259e-17 0)
(9.34459e-18 0 0)
(-1.0097e-16 -5.20415e-17 0)
(8.69288e-17 -1.0842e-17 0)
(2.00849e-16 0 0)
(5.47163e-18 6.83045e-17 0)
(-1.86243e-16 0 0)
(-3.11244e-17 -1.30104e-17 0)
(6.7868e-17 -5.63783e-17 0)
(-3.60597e-17 0 0)
(3.14525e-17 -2.27682e-17 0)
(1.46206e-16 0 0)
(-7.47334e-19 0 0)
(3.59931e-17 0 0)
(1.66016e-16 0 0)
(3.63665e-17 0 0)
(-2.92216e-19 0 0)
(-4.46903e-17 0 0)
(-1.80162e-16 0 0)
(1.12959e-17 0 0)
(2.05264e-16 5.96309e-17 0)
(2.61217e-17 0 0)
(-1.23274e-16 0 0)
(-3.09357e-16 0 0)
(-1.64897e-16 0 0)
(-7.77879e-17 -1.6263e-17 0)
(-1.37375e-17 -7.69781e-17 0)
(2.06651e-16 -8.02307e-17 0)
(3.03639e-16 0 0)
(6.78125e-17 0 0)
(-2.36774e-16 0 0)
(-3.26038e-16 5.52941e-17 0)
(-1.77318e-16 -9.10727e-17 0)
(-1.15097e-17 -5.20415e-17 0)
(-9.75778e-18 -1.34441e-16 0)
(1.0842e-17 1.45283e-16 0)
(2.55819e-17 0 0)
(-1.50851e-17 -6.50519e-18 0)
(-3.30024e-17 -1.97324e-16 0)
(-1.43356e-17 -6.50519e-18 0)
(2.47035e-18 0 0)
(6.61196e-17 0 0)
(2.28414e-17 8.67359e-17 0)
(-5.545e-17 0 0)
(1.08333e-16 -2.1684e-18 0)
(3.9022e-16 0 0)
(2.1011e-17 0 0)
(-3.46443e-16 0 0)
(-5.50959e-17 -5.85467e-17 0)
(1.3921e-16 0 0)
(1.83298e-17 9.32411e-17 0)
(-1.70968e-16 2.81892e-17 0)
(-5.66217e-17 0 0)
(-1.00234e-17 0 0)
(1.92472e-18 0 0)
(1.50339e-16 0 0)
(5.51176e-19 9.32411e-17 0)
(-1.5886e-16 0 0)
(-1.40011e-17 0 0)
(2.11494e-19 0 0)
(-8.94001e-19 0 0)
(-2.11936e-19 0 0)
(1.06365e-18 0 0)
(-4.26757e-18 0 0)
(-9.17736e-20 0 0)
(-2.94183e-17 0 0)
(-1.75607e-16 -1.60461e-16 0)
(1.66087e-17 -3.46943e-16 0)
(2.01391e-16 -1.66967e-16 0)
(3.41896e-17 0 0)
(-2.14838e-17 -1.19262e-16 0)
(8.64423e-18 0 0)
(-9.9675e-18 0 0)
(4.85886e-17 0 0)
(8.44111e-14 5.85467e-17 0)
(1.27563e-09 1.10588e-16 0)
(1.64512e-06 -1.05384e-15 0)
(0.000242319 1.93244e-15 0)
(0.00610644 -1.44949e-15 0)
(0.0423668 -1.23662e-15 0)
(0.130767 1.81897e-15 0)
(0.258461 1.56478e-15 0)
(0.408381 -3.74435e-16 0)
(0.56313 7.7946e-16 0)
(0.733587 3.52557e-16 0)
(0.902351 1.92221e-15 0)
(0.958218 2.00007e-15 0)
(0.934511 9.07198e-16 0)
(0.936487 1.21987e-17 0)
(0.954617 -9.51746e-16 0)
(0.926565 -1.11929e-15 0)
(0.752585 2.15469e-16 0)
(0.317352 1.5546e-16 0)
(0.0231563 -1.32932e-15 0)
(0.000151378 3.12206e-16 0)
(6.58075e-08 -5.51857e-16 0)
(2.11274e-12 3.25259e-18 0)
(-1.76959e-16 -8.78201e-17 0)
(-1.0275e-16 -5.42099e-17 0)
(3.14071e-18 -1.7564e-16 0)
(1.06636e-16 -7.26413e-17 0)
(3.74488e-17 0 0)
(-1.19275e-16 5.20415e-17 0)
(6.60512e-17 0 0)
(2.09475e-16 -7.04729e-17 0)
(5.89795e-18 -6.83045e-17 0)
(-1.98642e-16 -8.23991e-17 0)
(-4.32574e-17 -4.98731e-17 0)
(7.99848e-17 -1.94071e-16 0)
(-2.33165e-17 -9.10727e-17 0)
(8.18388e-17 0 0)
(2.12683e-16 -8.02307e-17 0)
(7.1575e-17 -3.90311e-17 0)
(-1.32142e-18 1.05167e-16 0)
(-4.44788e-18 -2.1684e-17 0)
(-1.33491e-18 -1.27935e-16 0)
(4.12931e-18 -9.10727e-17 0)
(4.84161e-17 -8.02307e-17 0)
(-3.08125e-17 0 0)
(1.30156e-17 6.07151e-17 0)
(9.56951e-17 0 0)
(2.33347e-18 0 0)
(-1.1646e-16 0 0)
(-2.92327e-16 0 0)
(-2.93423e-16 5.42099e-18 0)
(-1.57268e-16 -1.32272e-16 0)
(7.01056e-17 -1.0842e-18 0)
(2.82076e-16 0 0)
(2.76259e-16 0 0)
(1.11468e-16 -9.8662e-17 0)
(-9.13972e-17 4.01153e-17 0)
(-2.85235e-16 2.32018e-16 0)
(-2.83073e-16 1.04083e-16 0)
(-1.1423e-16 7.48097e-17 0)
(-5.20415e-17 5.85467e-17 0)
(2.53702e-16 3.81638e-16 0)
(5.89778e-17 1.45283e-16 0)
(-7.49672e-17 1.2143e-16 0)
(-1.98191e-16 -1.19262e-16 0)
(-3.68865e-17 2.1684e-18 0)
(3.84782e-17 0 0)
(2.26896e-16 1.51788e-16 0)
(4.21155e-17 3.31765e-16 0)
(-1.41229e-16 1.51788e-16 0)
(1.29736e-16 1.04083e-16 0)
(2.67542e-16 1.25767e-16 0)
(2.09562e-17 -1.25767e-16 0)
(-2.13972e-16 -6.28835e-17 0)
(-1.57434e-17 -2.53702e-16 0)
(1.86126e-16 -5.85467e-17 0)
(3.90145e-17 -1.95156e-17 0)
(-2.11312e-16 2.34187e-16 0)
(-2.32745e-16 3.68627e-17 0)
(-6.3271e-17 0 0)
(2.38713e-17 0 0)
(2.48765e-16 0 0)
(1.39779e-17 -1.73472e-17 0)
(-2.43755e-16 0 0)
(-3.33951e-17 0 0)
(2.36873e-18 0 0)
(-2.25885e-17 0 0)
(-8.4149e-18 0 0)
(2.63381e-18 0 0)
(-4.29785e-17 0 0)
(-2.08746e-18 0 0)
(-6.6773e-17 0 0)
(-2.97049e-16 8.67359e-18 0)
(3.86626e-17 2.1684e-17 0)
(3.29e-16 0 0)
(5.97267e-17 0 0)
(-6.27374e-17 0 0)
(7.98162e-17 0 0)
(-3.80855e-17 0 0)
(1.03127e-16 -4.55363e-17 0)
(8.43644e-14 1.95156e-17 0)
(1.27563e-09 2.53702e-16 0)
(1.64512e-06 -6.07152e-16 0)
(0.000242319 2.35536e-15 0)
(0.00610644 -1.22716e-15 0)
(0.0423668 -7.48827e-15 0)
(0.130767 6.00541e-15 0)
(0.258461 -1.52132e-16 0)
(0.408381 -6.5913e-16 0)
(0.56313 8.78697e-16 0)
(0.733587 2.33595e-15 0)
(0.902351 1.49804e-15 0)
(0.958218 1.3842e-15 0)
(0.934511 5.98981e-16 0)
(0.936487 1.64368e-15 0)
(0.954617 -5.8531e-16 0)
(0.926565 -2.08321e-15 0)
(0.752585 1.05485e-15 0)
(0.317352 -1.66951e-15 0)
(0.0231563 -2.77349e-15 0)
(0.000151378 1.55344e-15 0)
(6.58075e-08 -1.41271e-15 0)
(2.11293e-12 1.6263e-16 0)
(-1.4076e-16 -2.39608e-16 0)
(-2.02171e-16 -8.67359e-17 0)
(9.88136e-19 -7.48097e-17 0)
(1.96622e-16 0 0)
(1.19584e-16 -7.04729e-17 0)
(9.4976e-18 3.79469e-17 0)
(-4.17468e-17 -6.93887e-17 0)
(8.26528e-17 -1.9624e-16 0)
(-4.80952e-19 -1.09504e-16 0)
(-6.9922e-17 -2.10334e-16 0)
(-4.84912e-17 -7.26413e-17 0)
(9.14402e-17 -4.11995e-17 0)
(-1.20296e-17 0 0)
(6.09283e-18 -7.04729e-17 0)
(1.42363e-16 -2.07082e-16 0)
(1.22547e-16 -1.81061e-16 0)
(1.72265e-18 -6.07151e-17 0)
(-1.02383e-16 -1.82145e-16 0)
(-4.32759e-18 -3.02491e-16 0)
(1.63297e-17 -2.51534e-16 0)
(1.06718e-16 -2.43945e-16 0)
(3.78799e-17 -1.09504e-16 0)
(2.79744e-17 -6.07151e-17 0)
(8.58249e-17 0 0)
(-7.69757e-18 0 0)
(-4.01488e-17 -6.61361e-17 0)
(-2.26036e-16 0 0)
(-3.24395e-16 1.47451e-16 0)
(-1.33317e-16 6.61361e-17 0)
(3.56731e-17 0 0)
(2.01218e-16 9.10727e-17 0)
(2.30399e-16 -9.75778e-17 0)
(8.91806e-17 -2.59123e-16 0)
(4.6791e-17 -6.83045e-17 0)
(-1.99112e-16 5.09573e-17 0)
(-2.29897e-16 2.2985e-16 0)
(-1.2351e-16 2.53702e-16 0)
(-2.24429e-16 2.2985e-16 0)
(4.44521e-16 1.92987e-16 0)
(1.09562e-16 1.04083e-16 0)
(-1.70382e-16 1.30104e-17 0)
(-3.24964e-16 1.38777e-16 0)
(-4.76127e-17 1.30104e-17 0)
(1.70174e-16 1.14925e-16 0)
(4.42118e-16 1.58293e-16 0)
(6.46588e-17 1.43114e-16 0)
(-3.22455e-16 1.7564e-16 0)
(2.2359e-16 3.57785e-16 0)
(-8.14472e-17 4.98731e-17 0)
(-2.05697e-16 -2.40692e-16 0)
(-1.36034e-16 2.1684e-18 0)
(-1.01793e-16 6.72203e-17 0)
(1.94777e-16 -2.1684e-18 0)
(2.74511e-16 -2.55871e-16 0)
(-3.08711e-17 5.42099e-17 0)
(-3.97404e-16 2.14671e-16 0)
(-1.34568e-16 4.55363e-17 0)
(8.43138e-17 1.40946e-16 0)
(-1.15743e-16 6.50519e-18 0)
(-9.45734e-17 -2.64544e-16 0)
(9.05351e-17 -1.95156e-17 0)
(2.24744e-16 1.45283e-16 0)
(1.35743e-17 1.14925e-16 0)
(-1.51675e-16 2.38524e-17 0)
(-7.24647e-17 0 0)
(-2.18518e-18 0 0)
(-1.51734e-16 2.60208e-17 0)
(-1.78871e-17 -4.33679e-18 0)
(8.73491e-17 2.60208e-17 0)
(-9.14888e-17 2.05998e-16 0)
(8.84186e-17 3.90311e-16 0)
(4.22734e-17 1.2143e-16 0)
(-1.48504e-16 0 0)
(-8.10386e-17 -1.10588e-16 0)
(1.03835e-16 0 0)
(-8.0239e-17 0 0)
(1.43882e-16 -2.73218e-16 0)
(8.44522e-14 -3.68627e-17 0)
(1.27563e-09 -1.23599e-16 0)
(1.64512e-06 -6.5052e-17 0)
(0.000242319 -1.06924e-15 0)
(0.00610644 3.79265e-16 0)
(0.0423668 -8.7631e-15 0)
(0.130767 6.91065e-15 0)
(0.258461 -2.54821e-15 0)
(0.408381 6.51393e-16 0)
(0.56313 3.86121e-16 0)
(0.733587 -6.06946e-16 0)
(0.902351 2.13398e-15 0)
(0.958218 2.33634e-15 0)
(0.934511 2.14181e-15 0)
(0.936487 1.26355e-15 0)
(0.954617 1.70076e-15 0)
(0.926565 -1.05129e-15 0)
(0.752585 1.90429e-15 0)
(0.317352 -3.89664e-15 0)
(0.0231563 -3.24353e-16 0)
(0.000151378 7.51247e-16 0)
(6.58075e-08 2.68881e-16 0)
(2.11213e-12 -4.33679e-18 0)
(-1.20859e-16 -1.20346e-16 0)
(-8.28945e-17 -1.84314e-17 0)
(-2.96549e-18 -7.48097e-17 0)
(7.32946e-17 -4.87889e-17 0)
(1.96677e-16 -1.66967e-16 0)
(7.77075e-17 -1.22514e-16 0)
(-7.58481e-17 3.25259e-17 0)
(2.51632e-17 -5.52941e-17 0)
(-4.22728e-19 -1.30104e-17 0)
(-3.25111e-17 -1.13841e-16 0)
(7.35814e-17 -1.0842e-17 0)
(2.66922e-17 3.90311e-17 0)
(-7.86608e-17 -6.39677e-17 0)
(-9.8377e-17 3.79469e-17 0)
(4.03103e-17 -8.45675e-17 0)
(1.57421e-16 -5.52941e-17 0)
(-6.56789e-18 -2.1684e-18 0)
(-1.50621e-16 -1.43114e-16 0)
(-6.73588e-18 -1.38777e-16 0)
(4.98802e-17 -8.99885e-17 0)
(1.85729e-16 -1.13841e-16 0)
(8.47469e-17 -2.14671e-16 0)
(1.22381e-16 -6.93887e-17 0)
(1.1553e-16 0 0)
(-1.76629e-17 -8.13149e-17 0)
(1.01284e-17 -2.20092e-16 0)
(2.90448e-18 -1.40946e-17 0)
(-1.96427e-16 1.86482e-16 0)
(-1.87637e-16 2.6346e-16 0)
(-2.23131e-17 9.97462e-17 0)
(7.8405e-17 0 0)
(8.06884e-17 -9.21569e-17 0)
(2.15788e-16 -1.91903e-16 0)
(1.76605e-16 -6.93887e-17 0)
(-1.78274e-17 -8.13149e-17 0)
(-1.22105e-16 9.64936e-17 0)
(-1.85994e-16 1.04083e-16 0)
(-3.33933e-16 1.24683e-16 0)
(3.03576e-16 2.38524e-17 0)
(6.6147e-17 2.73218e-16 0)
(-1.9987e-16 1.92987e-16 0)
(-1.07146e-16 3.75133e-16 0)
(8.0226e-17 2.05998e-16 0)
(2.70738e-16 3.9248e-16 0)
(2.58075e-16 3.40438e-16 0)
(5.05175e-18 1.23599e-16 0)
(-1.4323e-16 1.97324e-16 0)
(-1.18836e-16 1.73472e-17 0)
(-2.29727e-16 -2.60208e-16 0)
(-3.51513e-18 -3.90311e-17 0)
(-1.73919e-16 2.25513e-16 0)
(-3.84921e-17 4.03322e-16 0)
(1.98341e-16 1.71303e-16 0)
(9.14651e-17 -7.37255e-17 0)
(4.56907e-17 1.45283e-16 0)
(-2.26204e-16 4.16332e-16 0)
(-4.2555e-17 2.34187e-16 0)
(1.05664e-16 4.14164e-16 0)
(-1.3736e-16 2.25513e-16 0)
(-1.3287e-16 6.28835e-17 0)
(1.19717e-16 1.6263e-16 0)
(3.98222e-16 4.57532e-16 0)
(3.22253e-17 3.77301e-16 0)
(-3.1924e-16 2.27682e-16 0)
(-1.81861e-16 2.81892e-17 0)
(-1.65756e-17 6.50519e-17 0)
(-2.00778e-16 2.45029e-16 0)
(-8.6366e-17 4.33679e-18 0)
(1.76611e-16 0 0)
(8.55217e-17 0 0)
(1.72461e-16 1.60461e-16 0)
(-4.35943e-17 3.72964e-16 0)
(-2.30794e-16 1.8865e-16 0)
(9.15056e-18 1.0842e-16 0)
(9.86179e-17 2.1684e-18 0)
(-8.92082e-17 1.82145e-16 0)
(-1.2667e-16 -1.73472e-17 0)
(8.45485e-14 4.11995e-17 0)
(1.27563e-09 -1.03216e-15 0)
(1.64512e-06 1.74339e-15 0)
(0.000242319 -8.96165e-15 0)
(0.00610644 3.91907e-15 0)
(0.0423668 -7.62317e-15 0)
(0.130767 3.23872e-15 0)
(0.258461 -4.63594e-15 0)
(0.408381 5.1833e-16 0)
(0.56313 1.22873e-15 0)
(0.733587 4.96113e-16 0)
(0.902351 2.19882e-15 0)
(0.958218 1.48369e-15 0)
(0.934511 9.07547e-16 0)
(0.936487 -8.49188e-16 0)
(0.954617 1.09617e-15 0)
(0.926565 -3.49932e-16 0)
(0.752585 -2.22572e-16 0)
(0.317352 -5.10906e-15 0)
(0.0231563 5.09075e-15 0)
(0.000151378 -1.85264e-15 0)
(6.58075e-08 1.6881e-15 0)
(2.11273e-12 -1.31188e-16 0)
(-8.51132e-17 1.38777e-16 0)
(-1.40812e-16 -2.60208e-17 0)
(-7.18223e-18 -1.7564e-16 0)
(1.01117e-16 -5.63783e-17 0)
(7.80358e-17 2.1684e-18 0)
(1.80339e-16 -9.97462e-17 0)
(3.83873e-17 0 0)
(-1.37839e-16 1.12757e-16 0)
(-4.11527e-17 1.6263e-17 0)
(-6.37221e-18 1.16009e-16 0)
(9.66134e-17 1.6263e-17 0)
(1.85162e-17 -6.28835e-17 0)
(-8.92536e-17 3.03576e-17 0)
(6.55264e-18 1.44198e-16 0)
(1.36222e-16 8.45675e-17 0)
(8.30682e-17 0 0)
(-7.11451e-17 -9.10727e-17 0)
(-7.37566e-17 5.42099e-17 0)
(6.81125e-17 1.20346e-16 0)
(-1.29372e-25 1.84314e-17 0)
(2.21967e-17 6.28835e-17 0)
(1.39638e-16 -5.42099e-17 0)
(2.27104e-16 0 0)
(3.27149e-17 0 0)
(-1.46822e-16 -1.24683e-16 0)
(2.57569e-17 -3.57785e-17 0)
(1.56718e-16 0 0)
(-2.73651e-17 -1.19262e-17 0)
(-1.83455e-16 1.45283e-16 0)
(-1.14283e-16 0 0)
(5.66065e-17 0 0)
(7.8136e-17 9.21569e-17 0)
(1.79808e-16 5.74625e-17 0)
(1.06196e-16 -1.20346e-16 0)
(-1.15117e-16 -1.8323e-16 0)
(-2.17758e-16 -3.57785e-17 0)
(-1.33149e-16 0 0)
(-2.35271e-16 1.95156e-17 0)
(4.98731e-16 -1.71303e-16 0)
(1.32277e-16 -8.89043e-17 0)
(-2.3732e-16 -7.80623e-17 0)
(-1.50151e-16 1.25767e-16 0)
(1.52684e-16 2.1684e-17 0)
(3.72046e-16 1.14925e-16 0)
(7.25405e-17 -2.38524e-17 0)
(-8.71861e-17 -1.86482e-16 0)
(-3.56209e-16 -1.51788e-16 0)
(-3.71691e-16 -3.36101e-16 0)
(-2.65555e-17 -5.63783e-17 0)
(2.11689e-16 2.73218e-16 0)
(-1.98463e-18 6.50519e-17 0)
(-2.18327e-16 2.21176e-16 0)
(-2.63408e-17 -4.33679e-18 0)
(2.75615e-16 -8.67359e-18 0)
(1.45073e-16 -1.0842e-16 0)
(-7.41474e-17 4.77047e-17 0)
(8.38077e-19 2.1684e-18 0)
(4.23732e-17 4.77047e-17 0)
(-1.4029e-16 -1.01915e-16 0)
(-1.40313e-16 4.33679e-18 0)
(1.41765e-16 2.1684e-18 0)
(2.95182e-16 9.97462e-17 0)
(-8.64741e-17 8.67359e-18 0)
(-5.10915e-16 7.22221e-34 0)
(-2.00189e-16 0 0)
(1.65366e-16 0 0)
(-2.47123e-17 -2.1684e-18 0)
(-3.07548e-16 -1.43114e-16 0)
(-6.76921e-18 0 0)
(1.69402e-16 0 0)
(4.57506e-16 0 0)
(8.96812e-17 3.25259e-17 0)
(-2.76392e-16 4.33679e-18 0)
(-6.26985e-18 1.53956e-16 0)
(2.53282e-16 0 0)
(-1.06596e-16 2.1684e-18 0)
(-3.98095e-16 2.99239e-16 0)
(8.4739e-14 -3.27407e-32 0)
(1.27563e-09 -5.78962e-16 0)