/*--------------------------------*- C++ -*----------------------------------*\
| =========                 |                                                 |
| \\      /  F ield         | OpenFOAM: The Open Source CFD Toolbox           |
|  \\    /   O peration     | Version:  4.1                                   |
|   \\  /    A nd           | Web:      www.OpenFOAM.org                      |
|    \\/     M anipulation  |                                                 |
\*---------------------------------------------------------------------------*/
FoamFile
{
    version     2.0;
    format      ascii;
    class       volVectorField;
    location    "0.49";
    object      U;
}
// * * * * * * * * * * * * * * * * * * * * * * * * * * * * * * * * * * * * * //

dimensions      [0 1 -1 0 0 0 0];

internalField   nonuniform List<vector> 
10000
(
(0 0 0)
(2.27249e-16 0 0)
(3.21357e-16 0 0)
(1.04664e-16 1.60461e-16 0)
(-1.21222e-16 0 0)
(-3.19303e-16 0 0)
(-3.08631e-16 0 0)
(-7.44184e-17 0 0)
(-9.09494e-19 0 0)
(2.6618e-16 1.58293e-16 0)
(5.3332e-16 0 0)
(2.03744e-16 -1.56125e-16 0)
(-1.34528e-16 0 0)
(1.84631e-17 0 0)
(2.06621e-13 -6.50519e-18 0)
(1.22832e-09 8.1098e-16 0)
(7.59735e-07 4.53195e-16 0)
(6.77148e-05 5.90271e-15 0)
(0.00127926 1.57162e-15 0)
(0.00784787 1.7286e-14 0)
(0.0234354 7.3115e-15 0)
(0.0463508 5.95561e-15 0)
(0.0732227 -3.5218e-15 0)
(0.102006 1.16387e-14 0)
(0.131801 -4.26815e-15 0)
(0.162221 6.33467e-15 0)
(0.193073 -2.48567e-14 0)
(0.224245 -1.92245e-14 0)
(0.255665 -2.20427e-16 0)
(0.287281 2.19651e-14 0)
(0.319061 7.4609e-15 0)
(0.35098 3.2903e-14 0)
(0.383021 1.90245e-14 0)
(0.415174 5.51029e-14 0)
(0.447431 -2.69406e-14 0)
(0.479791 3.31576e-14 0)
(0.512252 2.48338e-14 0)
(0.544816 2.52426e-14 0)
(0.577485 -2.90274e-14 0)
(0.61026 5.77848e-15 0)
(0.643142 -1.82636e-14 0)
(0.676124 3.3317e-14 0)
(0.709195 -2.29252e-14 0)
(0.742332 7.61793e-15 0)
(0.775495 9.00744e-14 0)
(0.808598 1.87057e-13 0)
(0.841439 -1.94848e-13 0)
(0.87342 4.20095e-13 0)
(0.902717 1.3685e-13 0)
(0.924736 -2.40413e-13 0)
(0.933671 1.35477e-14 0)
(0.931312 4.92236e-14 0)
(0.92581 7.14005e-14 0)
(0.927075 8.00182e-14 0)
(0.927618 4.8386e-14 0)
(0.927814 4.21719e-14 0)
(0.927998 2.39443e-14 0)
(0.928197 1.12612e-14 0)
(0.928417 4.14827e-15 0)
(0.928419 6.13842e-15 0)
(0.928208 1.24543e-14 0)
(0.928122 1.64633e-14 0)
(0.928151 1.54018e-14 0)
(0.928192 1.95264e-14 0)
(0.928146 1.67858e-14 0)
(0.92808 1.30739e-14 0)
(0.928013 1.05253e-14 0)
(0.927957 6.88754e-15 0)
(0.927923 3.40926e-15 0)
(0.927921 6.22476e-15 0)
(0.927959 6.29825e-15 0)
(0.928196 8.53438e-15 0)
(0.928663 -2.12848e-15 0)
(0.928949 -1.10389e-14 0)
(0.928187 -2.48616e-14 0)
(0.927735 -3.87425e-14 0)
(0.929704 -4.14e-14 0)
(0.928172 -2.46276e-14 0)
(0.926488 -9.16336e-15 0)
(0.926103 -3.10434e-15 0)
(0.925908 -2.19582e-15 0)
(0.925854 -2.78505e-15 0)
(0.926113 -1.4949e-15 0)
(0.926885 -3.29326e-15 0)
(0.928022 -7.29077e-15 0)
(0.928584 -1.24649e-14 0)
(0.928366 -1.35912e-14 0)
(0.927975 -1.45863e-14 0)
(0.927364 -1.39332e-14 0)
(0.926158 -1.28602e-14 0)
(0.921816 -1.01651e-14 0)
(0.898795 -6.17458e-15 0)
(0.77932 -2.89089e-15 0)
(0.397372 -5.85366e-16 0)
(0.0413595 3.97788e-16 0)
(0.000389062 8.12864e-17 0)
(2.43442e-07 6.28835e-16 0)
(8.30372e-12 3.16586e-16 0)
(-2.25812e-16 1.60461e-16 0)
(-2.99239e-16 2.56955e-16 0)
(0 0 0)
(2.40429e-16 0 0)
(3.22589e-16 1.38777e-16 0)
(1.06499e-16 3.44775e-16 0)
(-1.23131e-16 1.30104e-16 0)
(-3.2484e-16 2.68881e-16 0)
(-3.43013e-16 5.85467e-17 0)
(-7.98356e-17 0 0)
(-4.4191e-18 0 0)
(2.55964e-16 0 0)
(5.6391e-16 0 0)
(2.10863e-16 0 0)
(-1.1974e-16 0 0)
(4.43995e-17 2.1684e-18 0)
(2.06653e-13 6.72203e-17 0)
(1.22832e-09 2.14671e-15 0)
(7.59735e-07 2.77989e-15 0)
(6.77148e-05 1.50799e-14 0)
(0.00127926 6.75101e-16 0)
(0.00784787 3.28585e-14 0)
(0.0234354 -1.03241e-14 0)
(0.0463508 5.36919e-15 0)
(0.0732227 4.62727e-15 0)
(0.102006 1.87413e-14 0)
(0.131801 3.70383e-15 0)
(0.162221 -5.93346e-15 0)
(0.193073 -1.30223e-14 0)
(0.224245 1.67713e-14 0)
(0.255665 1.04263e-14 0)
(0.287281 -1.04151e-14 0)
(0.319061 1.54698e-14 0)
(0.35098 2.36592e-14 0)
(0.383021 6.13391e-15 0)
(0.415174 3.61601e-14 0)
(0.447431 -1.4076e-14 0)
(0.479791 3.56005e-14 0)
(0.512252 1.55497e-14 0)
(0.544816 8.69896e-15 0)
(0.577485 3.80284e-15 0)
(0.61026 2.77048e-14 0)
(0.643142 -7.00874e-15 0)
(0.676124 2.68488e-14 0)
(0.709195 -1.10232e-14 0)
(0.742332 3.93733e-14 0)
(0.775495 4.90084e-14 0)
(0.808598 9.37655e-14 0)
(0.841439 -6.31714e-14 0)
(0.87342 2.0475e-13 0)
(0.902717 6.00855e-14 0)
(0.924736 -6.1918e-14 0)
(0.933671 3.0815e-14 0)
(0.931312 4.93538e-14 0)
(0.92581 5.35023e-14 0)
(0.927075 5.83704e-14 0)
(0.927618 4.44283e-14 0)
(0.927814 4.11533e-14 0)
(0.927998 2.41053e-14 0)
(0.928197 1.21603e-14 0)
(0.928417 6.68861e-15 0)
(0.928419 9.50926e-15 0)
(0.928208 1.32941e-14 0)
(0.928122 1.70346e-14 0)
(0.928151 2.64687e-14 0)
(0.928192 2.40863e-14 0)
(0.928146 1.94806e-14 0)
(0.92808 1.56618e-14 0)
(0.928013 1.28837e-14 0)
(0.927957 7.81868e-15 0)
(0.927923 4.83639e-15 0)
(0.927921 8.13366e-15 0)
(0.927959 3.17067e-15 0)
(0.928196 2.79853e-15 0)
(0.928663 1.97698e-15 0)
(0.928949 -3.63784e-15 0)
(0.928187 -9.06417e-15 0)
(0.927735 -2.06041e-14 0)
(0.929704 -2.38933e-14 0)
(0.928172 -1.27334e-14 0)
(0.926488 -3.03183e-15 0)
(0.926103 -4.96653e-16 0)
(0.925908 1.10485e-15 0)
(0.925854 3.44884e-15 0)
(0.926113 4.7851e-15 0)
(0.926885 1.33368e-15 0)
(0.928022 -2.39943e-15 0)
(0.928584 -1.09315e-14 0)
(0.928366 -8.33971e-15 0)
(0.927975 -7.70554e-15 0)
(0.927364 -1.11517e-14 0)
(0.926158 -8.53231e-15 0)
(0.921816 -9.33509e-15 0)
(0.898795 -8.3676e-15 0)
(0.77932 -3.80407e-15 0)
(0.397372 -1.23438e-15 0)
(0.0413595 1.65919e-15 0)
(0.000389062 -5.77676e-16 0)
(2.43442e-07 1.53848e-15 0)
(8.30361e-12 6.23414e-16 0)
(-3.40291e-16 3.63206e-16 0)
(-5.09573e-16 4.67289e-16 0)
(0 0 0)
(2.59154e-16 0 0)
(5.31525e-16 0 0)
(1.21576e-16 1.0842e-16 0)
(-3.54123e-16 3.44775e-16 0)
(-3.26082e-16 6.00646e-16 0)
(-3.62627e-16 2.81892e-16 0)
(-6.34419e-17 0 0)
(-1.5631e-17 0 0)
(2.57542e-16 0 0)
(5.89496e-16 0 0)
(2.31725e-16 2.1684e-18 0)
(-1.0895e-16 1.64798e-16 0)
(1.19697e-16 3.68627e-16 0)
(2.06605e-13 -3.68627e-16 0)
(1.22833e-09 4.14164e-16 0)
(7.59735e-07 7.81924e-15 0)
(6.77148e-05 1.85647e-14 0)
(0.00127926 1.99274e-15 0)
(0.00784787 4.56064e-14 0)
(0.0234354 -1.80249e-14 0)
(0.0463508 4.70607e-15 0)
(0.0732227 1.09047e-14 0)
(0.102006 2.38297e-14 0)
(0.131801 1.39488e-14 0)
(0.162221 -3.85264e-15 0)
(0.193073 -1.18293e-14 0)
(0.224245 2.35955e-14 0)
(0.255665 1.66375e-14 0)
(0.287281 -1.84952e-14 0)
(0.319061 1.71164e-14 0)
(0.35098 2.10284e-14 0)
(0.383021 5.41263e-15 0)
(0.415174 3.0628e-14 0)
(0.447431 -7.99639e-15 0)
(0.479791 3.56286e-14 0)
(0.512252 1.40609e-14 0)
(0.544816 2.08993e-15 0)
(0.577485 1.35261e-14 0)
(0.61026 2.98427e-14 0)
(0.643142 -3.474e-15 0)
(0.676124 2.09604e-14 0)
(0.709195 -3.91668e-15 0)
(0.742332 5.25221e-14 0)
(0.775495 3.53413e-14 0)
(0.808598 6.22111e-14 0)
(0.841439 -2.18223e-14 0)
(0.87342 1.21278e-13 0)
(0.902717 6.14093e-14 0)
(0.924736 -1.97731e-14 0)
(0.933671 3.23301e-14 0)
(0.931312 4.48683e-14 0)
(0.92581 4.83388e-14 0)
(0.927075 5.38823e-14 0)
(0.927618 3.47839e-14 0)
(0.927814 3.09782e-14 0)
(0.927998 1.69589e-14 0)
(0.928197 1.0614e-14 0)
(0.928417 8.50792e-15 0)
(0.928419 9.73782e-15 0)
(0.928208 1.75675e-14 0)
(0.928122 1.90321e-14 0)
(0.928151 3.01442e-14 0)
(0.928192 2.09796e-14 0)
(0.928146 1.7433e-14 0)
(0.92808 1.46916e-14 0)
(0.928013 1.24843e-14 0)
(0.927957 6.66772e-15 0)
(0.927923 4.61852e-15 0)
(0.927921 9.10872e-15 0)
(0.927959 1.42287e-15 0)
(0.928196 9.15329e-16 0)
(0.928663 2.53431e-15 0)
(0.928949 -4.37144e-15 0)
(0.928187 -3.61524e-15 0)
(0.927735 -1.53209e-14 0)
(0.929704 -1.21e-14 0)
(0.928172 -9.1873e-16 0)
(0.926488 1.90126e-15 0)
(0.926103 5.11974e-15 0)
(0.925908 6.65376e-15 0)
(0.925854 6.23082e-15 0)
(0.926113 7.88819e-15 0)
(0.926885 3.59572e-15 0)
(0.928022 -5.1018e-15 0)
(0.928584 -1.1181e-14 0)
(0.928366 -7.78013e-15 0)
(0.927975 -4.10755e-15 0)
(0.927364 -9.09766e-15 0)
(0.926158 -4.20948e-15 0)
(0.921816 -3.5624e-15 0)
(0.898795 -2.77911e-15 0)
(0.77932 6.05337e-16 0)
(0.397372 1.49524e-15 0)
(0.0413595 2.19725e-15 0)
(0.000389062 -1.77746e-16 0)
(2.43442e-07 -9.43252e-17 0)
(8.30316e-12 8.93379e-16 0)
(-4.59234e-16 5.61615e-16 0)
(-7.34002e-16 6.8955e-16 0)
(-2.1684e-18 -2.1684e-18 0)
(2.82802e-16 -2.1684e-18 0)
(5.98263e-16 -2.1684e-18 0)
(1.89552e-16 3.90311e-17 0)
(-3.0132e-16 2.86228e-16 0)
(-6.92222e-16 2.2985e-16 0)
(-3.7983e-16 -2.1684e-18 0)
(-3.19102e-17 -2.1684e-18 0)
(-2.90279e-17 0 0)
(2.1107e-16 0 0)
(4.37539e-16 -4.33679e-18 0)
(2.65767e-16 -2.60208e-17 0)
(1.56693e-16 3.46943e-16 0)
(2.87588e-16 7.11234e-16 0)
(2.05267e-13 -1.30104e-16 0)
(1.22833e-09 9.82284e-16 0)
(7.59735e-07 9.22436e-15 0)
(6.77148e-05 1.71682e-14 0)
(0.00127926 3.86827e-15 0)
(0.00784787 4.92736e-14 0)
(0.0234354 -2.171e-14 0)
(0.0463508 6.94803e-15 0)
(0.0732227 1.1462e-14 0)
(0.102006 2.20082e-14 0)
(0.131801 1.65459e-14 0)
(0.162221 -1.70328e-15 0)
(0.193073 -1.26933e-14 0)
(0.224245 2.55094e-14 0)
(0.255665 2.15531e-14 0)
(0.287281 -1.96398e-14 0)
(0.319061 1.68646e-14 0)
(0.35098 1.98154e-14 0)
(0.383021 4.54588e-15 0)
(0.415174 2.87465e-14 0)
(0.447431 -4.83768e-15 0)
(0.479791 3.35135e-14 0)
(0.512252 1.07456e-14 0)
(0.544816 1.08979e-16 0)
(0.577485 1.83709e-14 0)
(0.61026 2.61508e-14 0)
(0.643142 2.45513e-15 0)
(0.676124 1.42087e-14 0)
(0.709195 2.6118e-15 0)
(0.742332 5.68361e-14 0)
(0.775495 2.4566e-14 0)
(0.808598 5.03948e-14 0)
(0.841439 -6.2151e-15 0)
(0.87342 7.56918e-14 0)
(0.902717 5.21773e-14 0)
(0.924736 -1.24161e-15 0)
(0.933671 3.36926e-14 0)
(0.931312 4.02666e-14 0)
(0.92581 4.64426e-14 0)
(0.927075 4.65245e-14 0)
(0.927618 3.06058e-14 0)
(0.927814 2.67235e-14 0)
(0.927998 1.65342e-14 0)
(0.928197 1.56735e-14 0)
(0.928417 1.02766e-14 0)
(0.928419 1.05578e-14 0)
(0.928208 1.59178e-14 0)
(0.928122 1.62938e-14 0)
(0.928151 3.12722e-14 0)
(0.928192 1.7933e-14 0)
(0.928146 1.3067e-14 0)
(0.92808 1.14856e-14 0)
(0.928013 1.35752e-14 0)
(0.927957 8.05706e-15 0)
(0.927923 7.17021e-15 0)
(0.927921 8.9969e-15 0)
(0.927959 1.0952e-15 0)
(0.928196 1.85059e-15 0)
(0.928663 7.33801e-15 0)
(0.928949 -2.97834e-15 0)
(0.928187 3.56072e-15 0)
(0.927735 -1.18588e-14 0)
(0.929704 -7.13265e-16 0)
(0.928172 1.96834e-15 0)
(0.926488 4.97473e-15 0)
(0.926103 8.14388e-15 0)
(0.925908 1.02509e-14 0)
(0.925854 9.66477e-15 0)
(0.926113 7.98764e-15 0)
(0.926885 5.1121e-15 0)
(0.928022 -2.82139e-15 0)
(0.928584 -7.10347e-15 0)
(0.928366 -3.82273e-15 0)
(0.927975 -1.52917e-15 0)
(0.927364 -4.75546e-15 0)
(0.926158 -1.58238e-15 0)
(0.921816 -1.7251e-15 0)
(0.898795 -2.32245e-16 0)
(0.77932 -2.91736e-16 0)
(0.397372 2.75161e-15 0)
(0.0413595 5.43189e-15 0)
(0.000389062 2.24892e-15 0)
(2.43442e-07 3.76217e-16 0)
(8.30267e-12 5.18247e-16 0)
(-5.1911e-16 3.25259e-16 0)
(-1.0224e-15 4.23922e-16 0)
(-2.1684e-18 2.1684e-18 0)
(3.05122e-16 2.1684e-18 0)
(6.51248e-16 2.1684e-18 0)
(2.02005e-16 1.6263e-16 0)
(-6.38393e-16 -1.60461e-16 0)
(-6.61038e-16 -5.44268e-16 0)
(-3.16084e-16 -2.40692e-16 0)
(1.35736e-17 2.1684e-18 0)
(-3.32881e-17 0 0)
(2.24342e-16 -2.1684e-18 0)
(4.6656e-16 1.38777e-16 0)
(2.84542e-16 3.18754e-16 0)
(3.07318e-16 1.6263e-16 0)
(3.97168e-16 3.42607e-16 0)
(2.04979e-13 6.37509e-16 0)
(1.22833e-09 1.64364e-15 0)
(7.59735e-07 9.77514e-15 0)
(6.77148e-05 1.22261e-14 0)
(0.00127926 1.16135e-15 0)
(0.00784787 4.50454e-14 0)
(0.0234354 -2.62334e-14 0)
(0.0463508 1.04542e-14 0)
(0.0732227 9.33071e-15 0)
(0.102006 1.59298e-14 0)
(0.131801 1.6376e-14 0)
(0.162221 1.12763e-15 0)
(0.193073 -1.08399e-14 0)
(0.224245 2.43795e-14 0)
(0.255665 2.28554e-14 0)
(0.287281 -2.09707e-14 0)
(0.319061 1.36142e-14 0)
(0.35098 1.40224e-14 0)
(0.383021 3.14121e-15 0)
(0.415174 2.59024e-14 0)
(0.447431 -5.50766e-15 0)
(0.479791 3.0536e-14 0)
(0.512252 5.67552e-15 0)
(0.544816 -1.97216e-15 0)
(0.577485 2.27092e-14 0)
(0.61026 2.40026e-14 0)
(0.643142 9.0995e-15 0)
(0.676124 9.08618e-15 0)
(0.709195 8.4514e-15 0)
(0.742332 5.0947e-14 0)
(0.775495 2.06988e-14 0)
(0.808598 3.96388e-14 0)
(0.841439 -7.63372e-15 0)
(0.87342 5.76479e-14 0)
(0.902717 3.91178e-14 0)
(0.924736 1.01244e-14 0)
(0.933671 3.16992e-14 0)
(0.931312 3.17712e-14 0)
(0.92581 3.58124e-14 0)
(0.927075 3.2695e-14 0)
(0.927618 2.55184e-14 0)
(0.927814 2.2528e-14 0)
(0.927998 1.49061e-14 0)
(0.928197 1.7589e-14 0)
(0.928417 8.02723e-15 0)
(0.928419 1.08042e-14 0)
(0.928208 1.50726e-14 0)
(0.928122 1.63641e-14 0)
(0.928151 3.13565e-14 0)
(0.928192 1.26971e-14 0)
(0.928146 1.07444e-14 0)
(0.92808 7.41717e-15 0)
(0.928013 1.22597e-14 0)
(0.927957 1.00716e-14 0)
(0.927923 4.21414e-15 0)
(0.927921 6.64368e-15 0)
(0.927959 -8.94082e-16 0)
(0.928196 1.62484e-15 0)
(0.928663 7.92871e-15 0)
(0.928949 -3.23723e-15 0)
(0.928187 9.08485e-15 0)
(0.927735 -9.05625e-15 0)
(0.929704 6.04744e-15 0)
(0.928172 -4.41401e-16 0)
(0.926488 7.5094e-15 0)
(0.926103 8.49709e-15 0)
(0.925908 1.01733e-14 0)
(0.925854 8.24478e-15 0)
(0.926113 7.40322e-15 0)
(0.926885 8.8721e-15 0)
(0.928022 8.28589e-16 0)
(0.928584 6.08752e-16 0)
(0.928366 1.30587e-16 0)
(0.927975 7.1868e-16 0)
(0.927364 -1.21425e-15 0)
(0.926158 -2.13844e-15 0)
(0.921816 -2.23694e-15 0)
(0.898795 -9.38896e-16 0)
(0.77932 -3.64295e-15 0)
(0.397372 3.65441e-15 0)
(0.0413595 1.08826e-14 0)
(0.000389062 1.04805e-15 0)
(2.43442e-07 1.10155e-15 0)
(8.30281e-12 -3.49112e-16 0)
(-7.59733e-16 -2.49366e-17 0)
(-1.21213e-15 -1.56125e-16 0)
(2.1684e-17 0 0)
(3.15504e-16 -4.33679e-17 0)
(3.86181e-16 -3.05744e-16 0)
(-9.28142e-17 -5.5511e-16 0)
(-7.24982e-16 -6.41845e-16 0)
(-3.7559e-16 -2.90565e-16 0)
(-1.36717e-17 -2.1684e-17 0)
(9.32375e-17 0 0)
(-2.01054e-17 0 0)
(2.37139e-16 1.10588e-16 0)
(5.033e-16 4.20669e-16 0)
(2.92923e-16 6.24498e-16 0)
(2.96659e-18 3.33933e-16 0)
(3.81991e-17 -1.73472e-17 0)
(2.06447e-13 5.96309e-16 0)
(1.22833e-09 -1.04083e-15 0)
(7.59735e-07 7.09717e-15 0)
(6.77148e-05 4.4086e-15 0)
(0.00127926 -8.90005e-16 0)
(0.00784787 3.63096e-14 0)
(0.0234354 -1.97602e-14 0)
(0.0463508 6.98411e-15 0)
(0.0732227 4.52688e-15 0)
(0.102006 1.16103e-14 0)
(0.131801 1.21867e-14 0)
(0.162221 3.90995e-15 0)
(0.193073 -1.18281e-14 0)
(0.224245 2.01676e-14 0)
(0.255665 1.97749e-14 0)
(0.287281 -1.89375e-14 0)
(0.319061 1.38846e-14 0)
(0.35098 9.99897e-15 0)
(0.383021 2.02746e-15 0)
(0.415174 2.41442e-14 0)
(0.447431 -3.23101e-15 0)
(0.479791 2.46539e-14 0)
(0.512252 3.29651e-15 0)
(0.544816 -2.26219e-15 0)
(0.577485 2.40883e-14 0)
(0.61026 2.08115e-14 0)
(0.643142 1.31692e-14 0)
(0.676124 5.9003e-15 0)
(0.709195 1.24985e-14 0)
(0.742332 3.99668e-14 0)
(0.775495 1.98078e-14 0)
(0.808598 2.89508e-14 0)
(0.841439 -7.26827e-15 0)
(0.87342 4.87242e-14 0)
(0.902717 3.05049e-14 0)
(0.924736 1.43489e-14 0)
(0.933671 2.662e-14 0)
(0.931312 2.71545e-14 0)
(0.92581 2.61148e-14 0)
(0.927075 2.57301e-14 0)
(0.927618 1.9445e-14 0)
(0.927814 1.65644e-14 0)
(0.927998 1.08283e-14 0)
(0.928197 1.36072e-14 0)
(0.928417 3.43265e-15 0)
(0.928419 8.43202e-15 0)
(0.928208 1.24104e-14 0)
(0.928122 1.50208e-14 0)
(0.928151 2.47217e-14 0)
(0.928192 6.85664e-15 0)
(0.928146 9.22887e-15 0)
(0.92808 5.19949e-15 0)
(0.928013 9.06004e-15 0)
(0.927957 7.48046e-15 0)
(0.927923 2.21875e-15 0)
(0.927921 4.29377e-15 0)
(0.927959 1.69445e-15 0)
(0.928196 1.21319e-15 0)
(0.928663 5.28371e-15 0)
(0.928949 -2.37828e-15 0)
(0.928187 9.50827e-15 0)
(0.927735 -3.87669e-15 0)
(0.929704 5.96173e-15 0)
(0.928172 -3.66979e-16 0)
(0.926488 4.42718e-15 0)
(0.926103 6.34544e-15 0)
(0.925908 7.43332e-15 0)
(0.925854 5.14606e-15 0)
(0.926113 5.41771e-15 0)
(0.926885 7.87619e-15 0)
(0.928022 1.09576e-15 0)
(0.928584 4.00817e-15 0)
(0.928366 5.58055e-16 0)
(0.927975 4.10143e-15 0)
(0.927364 -2.25503e-16 0)
(0.926158 -2.42795e-15 0)
(0.921816 6.19948e-17 0)
(0.898795 1.50255e-15 0)
(0.77932 -1.00755e-15 0)
(0.397372 3.64106e-15 0)
(0.0413595 8.89579e-15 0)
(0.000389062 -1.46424e-15 0)
(2.43442e-07 -8.73864e-16 0)
(8.30329e-12 -4.47774e-16 0)
(-6.27821e-16 -2.00577e-16 0)
(-9.59515e-16 -3.25259e-16 0)
(9.54094e-17 0 0)
(3.68914e-16 -2.62376e-16 0)
(5.1032e-17 -6.44014e-16 0)
(-1.91129e-16 -1.02348e-15 0)
(-3.9854e-16 -8.1098e-16 0)
(-6.25635e-17 -4.11995e-16 0)
(3.04368e-16 -4.98731e-17 0)
(2.16318e-16 4.11995e-17 0)
(1.53107e-17 0 0)
(2.49061e-16 0 0)
(4.34637e-16 1.47451e-16 0)
(5.00563e-17 3.25259e-16 0)
(-2.25049e-16 6.72203e-17 0)
(-7.09501e-17 -5.20415e-17 0)
(2.06599e-13 4.77047e-17 0)
(1.22833e-09 -9.77947e-16 0)
(7.59735e-07 1.52872e-15 0)
(6.77148e-05 -3.6648e-15 0)
(0.00127926 1.14832e-15 0)
(0.00784787 2.04533e-14 0)
(0.0234354 -8.34779e-15 0)
(0.0463508 6.4146e-15 0)
(0.0732227 4.5915e-15 0)
(0.102006 7.38416e-15 0)
(0.131801 3.9332e-15 0)
(0.162221 5.80263e-15 0)
(0.193073 -1.19535e-14 0)
(0.224245 1.80156e-14 0)
(0.255665 1.52635e-14 0)
(0.287281 -1.55761e-14 0)
(0.319061 1.56085e-14 0)
(0.35098 1.0211e-14 0)
(0.383021 6.57638e-16 0)
(0.415174 2.43595e-14 0)
(0.447431 1.17608e-15 0)
(0.479791 1.92501e-14 0)
(0.512252 4.33509e-15 0)
(0.544816 -1.36399e-15 0)
(0.577485 2.28415e-14 0)
(0.61026 1.79017e-14 0)
(0.643142 1.22101e-14 0)
(0.676124 6.11017e-15 0)
(0.709195 1.41668e-14 0)
(0.742332 2.90885e-14 0)
(0.775495 2.20211e-14 0)
(0.808598 2.32336e-14 0)
(0.841439 -4.28507e-15 0)
(0.87342 4.66491e-14 0)
(0.902717 2.049e-14 0)
(0.924736 1.29449e-14 0)
(0.933671 2.73465e-14 0)
(0.931312 2.84835e-14 0)
(0.92581 2.17647e-14 0)
(0.927075 2.14151e-14 0)
(0.927618 1.63671e-14 0)
(0.927814 1.17e-14 0)
(0.927998 1.01584e-14 0)
(0.928197 9.68155e-15 0)
(0.928417 5.15167e-15 0)
(0.928419 9.48665e-15 0)
(0.928208 9.56293e-15 0)
(0.928122 1.27599e-14 0)
(0.928151 1.63543e-14 0)
(0.928192 7.46913e-15 0)
(0.928146 7.81983e-15 0)
(0.92808 5.47996e-15 0)
(0.928013 5.60204e-15 0)
(0.927957 4.47618e-15 0)
(0.927923 3.07115e-15 0)
(0.927921 3.53576e-15 0)
(0.927959 2.76639e-15 0)
(0.928196 2.4782e-15 0)
(0.928663 6.91608e-15 0)
(0.928949 1.18332e-15 0)
(0.928187 6.44474e-15 0)
(0.927735 1.74197e-15 0)
(0.929704 4.3903e-15 0)
(0.928172 1.12763e-15 0)
(0.926488 2.67245e-15 0)
(0.926103 5.31151e-15 0)
(0.925908 4.64653e-15 0)
(0.925854 3.45603e-15 0)
(0.926113 3.69828e-15 0)
(0.926885 6.21497e-15 0)
(0.928022 2.06892e-16 0)
(0.928584 4.33474e-15 0)
(0.928366 1.86699e-15 0)
(0.927975 3.51128e-15 0)
(0.927364 1.50046e-15 0)
(0.926158 3.176e-16 0)
(0.921816 1.48583e-15 0)
(0.898795 1.79846e-15 0)
(0.77932 1.21815e-15 0)
(0.397372 2.04839e-15 0)
(0.0413595 2.17527e-15 0)
(0.000389062 -1.05456e-15 0)
(2.43442e-07 -5.63783e-17 0)
(8.30335e-12 -9.54094e-17 0)
(-5.35119e-16 -3.25259e-18 0)
(-7.52434e-16 -1.16009e-16 0)
(5.009e-16 1.99492e-16 0)
(4.81157e-16 0 0)
(3.66151e-17 -2.79723e-16 0)
(-1.4931e-16 -6.52687e-16 0)
(-1.2866e-16 -4.38016e-16 0)
(1.07597e-16 -6.72203e-17 0)
(4.50609e-16 2.7105e-16 0)
(2.47902e-16 4.68374e-16 0)
(4.5401e-17 3.03576e-16 0)
(2.83662e-16 1.12757e-16 0)
(4.25019e-16 0 0)
(5.52384e-17 0 0)
(-3.1506e-16 0 0)
(-1.13651e-16 -7.37255e-17 0)
(2.06682e-13 4.33679e-17 0)
(1.22833e-09 6.44014e-16 0)
(7.59735e-07 -4.66206e-16 0)
(6.77148e-05 -9.91231e-15 0)
(0.00127926 4.40878e-15 0)
(0.00784787 7.14011e-15 0)
(0.0234354 2.20086e-16 0)
(0.0463508 6.93449e-15 0)
(0.0732227 4.49572e-15 0)
(0.102006 6.21202e-15 0)
(0.131801 -5.10066e-15 0)
(0.162221 8.96747e-15 0)
(0.193073 -1.26549e-14 0)
(0.224245 1.64608e-14 0)
(0.255665 1.00463e-14 0)
(0.287281 -1.40115e-14 0)
(0.319061 1.69448e-14 0)
(0.35098 9.29821e-15 0)
(0.383021 1.30315e-16 0)
(0.415174 2.20458e-14 0)
(0.447431 4.23036e-15 0)
(0.479791 1.54931e-14 0)
(0.512252 4.20037e-15 0)
(0.544816 1.05639e-15 0)
(0.577485 2.02728e-14 0)
(0.61026 1.22288e-14 0)
(0.643142 1.11681e-14 0)
(0.676124 6.01668e-15 0)
(0.709195 1.54429e-14 0)
(0.742332 1.82133e-14 0)
(0.775495 2.37287e-14 0)
(0.808598 1.40797e-14 0)
(0.841439 -1.3007e-15 0)
(0.87342 4.21854e-14 0)
(0.902717 1.29342e-14 0)
(0.924736 1.26583e-14 0)
(0.933671 2.76865e-14 0)
(0.931312 2.78762e-14 0)
(0.92581 2.04075e-14 0)
(0.927075 1.94229e-14 0)
(0.927618 1.09767e-14 0)
(0.927814 8.65733e-15 0)
(0.927998 9.27271e-15 0)
(0.928197 8.78318e-15 0)
(0.928417 6.99326e-15 0)
(0.928419 8.95185e-15 0)
(0.928208 7.72169e-15 0)
(0.928122 1.19481e-14 0)
(0.928151 9.04747e-15 0)
(0.928192 7.6306e-15 0)
(0.928146 4.23571e-15 0)
(0.92808 5.28217e-15 0)
(0.928013 4.60949e-15 0)
(0.927957 5.47931e-15 0)
(0.927923 4.79016e-15 0)
(0.927921 4.21493e-15 0)
(0.927959 7.96944e-16 0)
(0.928196 2.47566e-15 0)
(0.928663 4.80644e-15 0)
(0.928949 2.98609e-15 0)
(0.928187 2.51981e-15 0)
(0.927735 5.18354e-15 0)
(0.929704 3.18826e-15 0)
(0.928172 3.92128e-15 0)
(0.926488 3.26165e-15 0)
(0.926103 3.60305e-15 0)
(0.925908 2.42296e-15 0)
(0.925854 2.82202e-15 0)
(0.926113 3.65111e-15 0)
(0.926885 5.0077e-15 0)
(0.928022 2.95779e-15 0)
(0.928584 4.53732e-15 0)
(0.928366 2.83976e-15 0)
(0.927975 1.92549e-15 0)
(0.927364 2.94939e-15 0)
(0.926158 2.6659e-15 0)
(0.921816 1.93465e-15 0)
(0.898795 6.85253e-16 0)
(0.77932 2.62389e-15 0)
(0.397372 7.4644e-16 0)
(0.0413595 -2.14387e-15 0)
(0.000389062 -2.85044e-16 0)
(2.43442e-07 4.97647e-16 0)
(8.30319e-12 2.67797e-16 0)
(-7.11975e-16 3.15502e-16 0)
(-8.89043e-16 2.40692e-16 0)
(9.194e-16 4.90058e-16 0)
(6.3499e-16 1.84314e-16 0)
(1.61761e-17 1.12757e-16 0)
(-3.0998e-16 -2.49366e-16 0)
(-1.77071e-16 2.1684e-18 0)
(2.66231e-16 1.66967e-16 0)
(5.04818e-16 6.00646e-16 0)
(2.52471e-16 8.5218e-16 0)
(5.26317e-17 6.48351e-16 0)
(2.93148e-16 3.70796e-16 0)
(2.95613e-16 1.77809e-16 0)
(-5.98639e-17 -1.77809e-16 0)
(-4.01839e-16 -8.89043e-17 0)
(-1.12967e-16 -2.7105e-16 0)
(2.06936e-13 2.53702e-16 0)
(1.22833e-09 -1.43114e-15 0)
(7.59735e-07 -8.34833e-16 0)
(6.77148e-05 -1.32562e-14 0)
(0.00127926 1.84947e-15 0)
(0.00784787 -3.31794e-15 0)
(0.0234354 3.70939e-15 0)
(0.0463508 4.42865e-15 0)
(0.0732227 3.32679e-15 0)
(0.102006 6.60471e-15 0)
(0.131801 -1.191e-14 0)
(0.162221 1.07991e-14 0)
(0.193073 -1.1215e-14 0)
(0.224245 1.37261e-14 0)
(0.255665 5.80683e-15 0)
(0.287281 -1.01773e-14 0)
(0.319061 1.81308e-14 0)
(0.35098 7.96443e-15 0)
(0.383021 8.37958e-16 0)
(0.415174 2.19788e-14 0)
(0.447431 8.22936e-15 0)
(0.479791 1.33481e-14 0)
(0.512252 3.65635e-15 0)
(0.544816 4.57183e-15 0)
(0.577485 1.64962e-14 0)
(0.61026 5.80091e-15 0)
(0.643142 1.00046e-14 0)
(0.676124 6.2733e-15 0)
(0.709195 1.64685e-14 0)
(0.742332 9.30009e-15 0)
(0.775495 2.50936e-14 0)
(0.808598 3.40517e-15 0)
(0.841439 2.62008e-15 0)
(0.87342 4.09177e-14 0)
(0.902717 5.15136e-15 0)
(0.924736 1.77122e-14 0)
(0.933671 2.52482e-14 0)
(0.931312 2.51142e-14 0)
(0.92581 1.6067e-14 0)
(0.927075 1.54766e-14 0)
(0.927618 7.55703e-15 0)
(0.927814 5.20789e-15 0)
(0.927998 9.85361e-15 0)
(0.928197 6.10749e-15 0)
(0.928417 8.83453e-15 0)
(0.928419 1.08434e-14 0)
(0.928208 7.31818e-15 0)
(0.928122 1.20811e-14 0)
(0.928151 3.44915e-15 0)
(0.928192 8.7205e-15 0)
(0.928146 4.4776e-15 0)
(0.92808 5.83611e-15 0)
(0.928013 3.79214e-15 0)
(0.927957 5.27485e-15 0)
(0.927923 7.44238e-15 0)
(0.927921 3.62383e-15 0)
(0.927959 5.13396e-16 0)
(0.928196 2.76628e-15 0)
(0.928663 2.99784e-15 0)
(0.928949 6.13932e-15 0)
(0.928187 5.55467e-16 0)
(0.927735 7.44935e-15 0)
(0.929704 1.98214e-15 0)
(0.928172 4.77483e-15 0)
(0.926488 3.94853e-15 0)
(0.926103 1.85859e-15 0)
(0.925908 9.44003e-16 0)
(0.925854 2.28554e-15 0)
(0.926113 4.93685e-16 0)
(0.926885 3.33011e-15 0)
(0.928022 1.80124e-15 0)
(0.928584 2.56309e-15 0)
(0.928366 2.66122e-15 0)
(0.927975 -1.25476e-16 0)
(0.927364 2.7943e-15 0)
(0.926158 5.0673e-15 0)
(0.921816 3.29188e-15 0)
(0.898795 7.33268e-16 0)
(0.77932 4.50032e-15 0)
(0.397372 1.63824e-15 0)
(0.0413595 -7.46061e-15 0)
(0.000389062 1.43498e-15 0)
(2.43442e-07 1.70219e-16 0)
(8.30318e-12 7.7737e-16 0)
(-8.32153e-16 5.56194e-16 0)
(-1.15467e-15 5.06321e-16 0)
(1.15576e-15 2.45029e-16 0)
(7.16183e-16 1.04083e-16 0)
(3.42426e-17 1.34441e-16 0)
(-3.24083e-16 2.81892e-16 0)
(5.42146e-18 1.0842e-16 0)
(4.31939e-16 2.81892e-16 0)
(6.88435e-16 4.20669e-16 0)
(3.08058e-16 5.009e-16 0)
(-1.32657e-16 4.64037e-16 0)
(3.27928e-16 2.79723e-16 0)
(-7.2236e-18 -6.07151e-17 0)
(-3.42197e-16 -2.90565e-16 0)
(-2.40663e-16 -2.1684e-17 0)
(-2.96611e-16 9.97462e-17 0)
(2.07114e-13 1.73472e-17 0)
(1.22832e-09 -1.64581e-15 0)
(7.59735e-07 -2.48065e-15 0)
(6.77148e-05 -4.684e-15 0)
(0.00127926 -4.12441e-15 0)
(0.00784787 -3.94442e-15 0)
(0.0234354 3.58221e-15 0)
(0.0463508 1.60816e-15 0)
(0.0732227 3.6072e-15 0)
(0.102006 7.40072e-15 0)
(0.131801 -1.52583e-14 0)
(0.162221 1.07704e-14 0)
(0.193073 -6.7748e-15 0)
(0.224245 9.27616e-15 0)
(0.255665 2.55722e-15 0)
(0.287281 -5.91475e-15 0)
(0.319061 1.59247e-14 0)
(0.35098 4.7978e-15 0)
(0.383021 1.63652e-16 0)
(0.415174 1.8584e-14 0)
(0.447431 9.6111e-15 0)
(0.479791 1.11419e-14 0)
(0.512252 9.19203e-16 0)
(0.544816 9.09972e-15 0)
(0.577485 1.14865e-14 0)
(0.61026 3.69565e-15 0)
(0.643142 8.07002e-15 0)
(0.676124 6.69702e-15 0)
(0.709195 1.45128e-14 0)
(0.742332 1.6546e-15 0)
(0.775495 2.55785e-14 0)
(0.808598 -2.03157e-15 0)
(0.841439 6.39958e-15 0)
(0.87342 3.98234e-14 0)
(0.902717 7.44416e-17 0)
(0.924736 1.44262e-14 0)
(0.933671 2.53409e-14 0)
(0.931312 2.48981e-14 0)
(0.92581 1.5257e-14 0)
(0.927075 1.25358e-14 0)
(0.927618 7.67563e-15 0)
(0.927814 5.46709e-15 0)
(0.927998 1.15063e-14 0)
(0.928197 4.9294e-15 0)
(0.928417 8.55567e-15 0)
(0.928419 1.07126e-14 0)
(0.928208 7.40378e-15 0)
(0.928122 8.1992e-15 0)
(0.928151 4.09485e-15 0)
(0.928192 7.7018e-15 0)
(0.928146 5.42162e-15 0)
(0.92808 6.94018e-15 0)
(0.928013 4.32886e-15 0)
(0.927957 2.49487e-15 0)
(0.927923 7.03801e-15 0)
(0.927921 2.61512e-15 0)
(0.927959 1.42355e-15 0)
(0.928196 3.04385e-15 0)
(0.928663 1.76621e-15 0)
(0.928949 7.06676e-15 0)
(0.928187 -4.88736e-17 0)
(0.927735 8.38737e-15 0)
(0.929704 1.375e-15 0)
(0.928172 6.08877e-15 0)
(0.926488 3.33208e-15 0)
(0.926103 2.05859e-15 0)
(0.925908 1.19889e-15 0)
(0.925854 2.69881e-15 0)
(0.926113 1.68663e-15 0)
(0.926885 4.29889e-16 0)
(0.928022 8.42382e-16 0)
(0.928584 3.04682e-15 0)
(0.928366 2.92902e-15 0)
(0.927975 4.20293e-16 0)
(0.927364 2.42951e-15 0)
(0.926158 3.2434e-15 0)
(0.921816 4.13828e-15 0)
(0.898795 1.65755e-15 0)
(0.77932 3.05488e-15 0)
(0.397372 3.75577e-16 0)
(0.0413595 -3.75072e-15 0)
(0.000389062 1.49025e-15 0)
(2.43442e-07 -2.01661e-16 0)
(8.30243e-12 3.75133e-16 0)
(-9.37477e-16 3.5887e-16 0)
(-1.36934e-15 3.70796e-16 0)
(9.38916e-16 1.95156e-17 0)
(6.01874e-16 2.55871e-16 0)
(1.1177e-16 3.01407e-16 0)
(5.12884e-18 6.04983e-16 0)
(2.25185e-16 3.9248e-16 0)
(4.55717e-16 5.46436e-16 0)
(4.23996e-16 3.88143e-16 0)
(1.76675e-16 1.40946e-16 0)
(1.2509e-16 2.10334e-16 0)
(-6.99623e-17 -1.17093e-16 0)
(-3.26164e-16 -3.94648e-16 0)
(-7.9066e-17 -1.51788e-16 0)
(-2.76773e-16 1.99492e-16 0)
(-1.40067e-16 4.77047e-16 0)
(2.0682e-13 1.04083e-16 0)
(1.22832e-09 -7.82791e-16 0)
(7.59735e-07 -1.49619e-16 0)
(6.77148e-05 3.6995e-15 0)
(0.00127926 -1.09883e-14 0)
(0.00784787 2.16976e-15 0)
(0.0234354 3.57999e-15 0)
(0.0463508 1.89912e-15 0)
(0.0732227 2.76252e-15 0)
(0.102006 9.22814e-15 0)
(0.131801 -1.3393e-14 0)
(0.162221 1.33347e-14 0)
(0.193073 -2.47415e-15 0)
(0.224245 4.88537e-15 0)
(0.255665 3.50249e-15 0)
(0.287281 6.02184e-16 0)
(0.319061 1.33996e-14 0)
(0.35098 2.12876e-15 0)
(0.383021 -2.00019e-15 0)
(0.415174 1.37835e-14 0)
(0.447431 1.02634e-14 0)
(0.479791 7.7904e-15 0)
(0.512252 -1.89639e-15 0)
(0.544816 1.37383e-14 0)
(0.577485 9.01465e-15 0)
(0.61026 3.61062e-15 0)
(0.643142 5.87226e-15 0)
(0.676124 8.2278e-15 0)
(0.709195 1.26217e-14 0)
(0.742332 -5.2256e-15 0)
(0.775495 2.61466e-14 0)
(0.808598 -6.34683e-15 0)
(0.841439 1.14144e-14 0)
(0.87342 3.22567e-14 0)
(0.902717 -5.44664e-16 0)
(0.924736 1.73343e-14 0)
(0.933671 2.29042e-14 0)
(0.931312 2.03839e-14 0)
(0.92581 1.24854e-14 0)
(0.927075 1.01279e-14 0)
(0.927618 7.23938e-15 0)
(0.927814 6.35028e-15 0)
(0.927998 8.96731e-15 0)
(0.928197 5.66292e-15 0)
(0.928417 9.59409e-15 0)
(0.928419 8.27126e-15 0)
(0.928208 7.93649e-15 0)
(0.928122 3.04532e-15 0)
(0.928151 8.7324e-15 0)
(0.928192 8.52439e-15 0)
(0.928146 4.25765e-15 0)
(0.92808 6.9936e-15 0)
(0.928013 7.86777e-15 0)
(0.927957 2.84269e-15 0)
(0.927923 4.06415e-15 0)
(0.927921 5.29885e-15 0)
(0.927959 3.54349e-15 0)
(0.928196 5.74635e-15 0)
(0.928663 2.58651e-15 0)
(0.928949 3.90751e-15 0)
(0.928187 2.06021e-15 0)
(0.927735 7.18768e-15 0)
(0.929704 5.88367e-15 0)
(0.928172 7.511e-15 0)
(0.926488 2.21848e-15 0)
(0.926103 4.22001e-15 0)
(0.925908 4.66297e-15 0)
(0.925854 4.12034e-15 0)
(0.926113 4.619e-15 0)
(0.926885 2.6387e-15 0)
(0.928022 2.76009e-15 0)
(0.928584 2.59881e-15 0)
(0.928366 2.70764e-15 0)
(0.927975 3.25115e-15 0)
(0.927364 2.09942e-15 0)
(0.926158 4.8508e-16 0)
(0.921816 1.83884e-15 0)
(0.898795 1.18158e-15 0)
(0.77932 -1.63418e-16 0)
(0.397372 -6.83582e-17 0)
(0.0413595 3.00853e-15 0)
(0.000389062 -9.07157e-16 0)
(2.43442e-07 -7.70865e-16 0)
(8.30295e-12 1.0083e-16 0)
(-8.83154e-16 9.10727e-17 0)
(-1.26743e-15 2.68881e-16 0)
(1.11672e-15 -2.25513e-16 0)
(7.01567e-16 -9.97462e-17 0)
(1.57306e-16 -5.20415e-17 0)
(2.25162e-17 2.62376e-16 0)
(3.66993e-16 2.12503e-16 0)
(6.83779e-16 2.51534e-16 0)
(3.58767e-16 -7.15571e-17 0)
(1.81052e-16 -3.96817e-16 0)
(-1.43866e-16 -2.7105e-16 0)
(-4.09275e-16 -5.05236e-16 0)
(-7.81855e-17 -1.66967e-16 0)
(1.47261e-16 1.53956e-16 0)
(-1.16807e-16 2.38524e-17 0)
(-3.62535e-16 2.47197e-16 0)
(2.06316e-13 -6.50519e-17 0)
(1.22832e-09 -1.55908e-15 0)
(7.59735e-07 2.73001e-15 0)
(6.77148e-05 3.20074e-15 0)
(0.00127926 -1.04586e-14 0)
(0.00784787 8.14204e-16 0)
(0.0234354 5.07304e-15 0)
(0.0463508 1.49877e-15 0)
(0.0732227 -9.91229e-16 0)
(0.102006 9.80179e-15 0)
(0.131801 -1.19015e-14 0)
(0.162221 1.2536e-14 0)
(0.193073 1.54491e-15 0)
(0.224245 1.49034e-15 0)
(0.255665 2.50178e-15 0)
(0.287281 6.21376e-15 0)
(0.319061 1.1019e-14 0)
(0.35098 8.36191e-16 0)
(0.383021 -9.5009e-16 0)
(0.415174 7.93313e-15 0)
(0.447431 1.03694e-14 0)
(0.479791 6.67654e-15 0)
(0.512252 -1.7736e-15 0)
(0.544816 1.50461e-14 0)
(0.577485 9.45863e-15 0)
(0.61026 2.26878e-15 0)
(0.643142 4.25479e-15 0)
(0.676124 1.03952e-14 0)