/*--------------------------------*- C++ -*----------------------------------*\
| =========                 |                                                 |
| \\      /  F ield         | OpenFOAM: The Open Source CFD Toolbox           |
|  \\    /   O peration     | Version:  4.1                                   |
|   \\  /    A nd           | Web:      www.OpenFOAM.org                      |
|    \\/     M anipulation  |                                                 |
\*---------------------------------------------------------------------------*/
FoamFile
{
    version     2.0;
    format      ascii;
    class       volVectorField;
    location    "0.31";
    object      U;
}
// * * * * * * * * * * * * * * * * * * * * * * * * * * * * * * * * * * * * * //

dimensions      [0 1 -1 0 0 0 0];

internalField   nonuniform List<vector> 
10000
(
(0 0 0)
(1.45309e-16 0 0)
(2.96784e-16 0 0)
(9.73134e-17 1.51788e-16 0)
(-1.2225e-16 0 0)
(-2.75073e-16 0 0)
(-2.48359e-16 0 0)
(-3.43094e-17 0 0)
(-1.68094e-22 0 0)
(2.22616e-16 1.45283e-16 0)
(4.80073e-16 0 0)
(1.49561e-16 -1.56125e-16 0)
(-2.31052e-16 0 0)
(3.56147e-17 0 0)
(1.5902e-16 0 0)
(-4.70464e-17 1.32272e-16 0)
(-2.53588e-16 0 0)
(-1.34412e-16 0 0)
(-3.21843e-17 0 0)
(-1.89331e-16 0 0)
(-3.05717e-19 0 0)
(1.42737e-16 1.19262e-16 0)
(3.61582e-17 0 0)
(7.08494e-17 0 0)
(-1.08846e-17 3.90311e-17 0)
(1.3058e-12 -7.37255e-17 0)
(5.72611e-09 -3.58436e-15 0)
(2.67045e-06 2.35922e-15 0)
(0.000186103 -2.18826e-15 0)
(0.00288479 4.82344e-15 0)
(0.0153657 8.7456e-15 0)
(0.0420193 4.49337e-15 0)
(0.0790718 9.689e-15 0)
(0.121522 4.4317e-15 0)
(0.166636 7.56188e-15 0)
(0.213228 1.19984e-14 0)
(0.260764 -1.78765e-14 0)
(0.308969 1.09941e-14 0)
(0.357688 -9.07744e-15 0)
(0.406831 1.45304e-14 0)
(0.456354 3.01102e-14 0)
(0.506244 6.11043e-14 0)
(0.556505 3.36218e-14 0)
(0.607151 2.24045e-14 0)
(0.658182 6.91068e-15 0)
(0.709553 2.08665e-14 0)
(0.761085 1.93811e-14 0)
(0.812317 5.05817e-14 0)
(0.861739 -5.99295e-15 0)
(0.905269 -3.58247e-14 0)
(0.932816 -1.30228e-14 0)
(0.937214 9.42533e-15 0)
(0.924925 1.22273e-14 0)
(0.926333 1.37624e-14 0)
(0.927437 1.22143e-14 0)
(0.927642 8.80157e-15 0)
(0.927823 7.40443e-15 0)
(0.927959 5.57602e-15 0)
(0.928242 5.00196e-15 0)
(0.928419 4.61085e-15 0)
(0.928241 4.8012e-15 0)
(0.928045 9.61337e-15 0)
(0.928105 4.71999e-15 0)
(0.928519 8.52662e-15 0)
(0.929001 3.20022e-15 0)
(0.928475 -2.90693e-15 0)
(0.928871 -4.8198e-15 0)
(0.931394 -6.09171e-15 0)
(0.929345 -6.43654e-15 0)
(0.925686 -1.54368e-15 0)
(0.924967 -2.05573e-15 0)
(0.92488 -3.65351e-15 0)
(0.925929 -3.33351e-15 0)
(0.927363 -4.1585e-15 0)
(0.925804 -4.0789e-15 0)
(0.912404 -4.7615e-15 0)
(0.829085 -4.60889e-15 0)
(0.507715 -3.7595e-15 0)
(0.0821835 1.91943e-15 0)
(0.00130203 3.0106e-16 0)
(1.44411e-06 3.68627e-17 0)
(8.15674e-11 3.25259e-18 0)
(1.95072e-15 0 0)
(1.10381e-16 3.36101e-17 0)
(2.77509e-16 1.09504e-16 0)
(8.72197e-17 0 0)
(-1.73496e-16 0 0)
(-7.99546e-17 0 0)
(-8.29029e-17 0 0)
(-1.93515e-16 0 0)
(-2.66949e-16 -6.50519e-18 0)
(-4.16917e-16 0 0)
(-2.24242e-16 1.0083e-16 0)
(5.15535e-17 0 0)
(2.6303e-16 0 0)
(3.0335e-17 0 0)
(-2.18043e-16 1.58293e-16 0)
(-2.86708e-16 1.09504e-16 0)
(-1.95713e-16 4.33679e-17 0)
(-6.39677e-17 1.19262e-16 0)
(0 0 0)
(1.90631e-16 0 0)
(3.07847e-16 1.38777e-16 0)
(1.00384e-16 3.3827e-16 0)
(-1.29141e-16 1.25767e-16 0)
(-3.17302e-16 2.47197e-16 0)
(-2.97792e-16 4.98731e-17 0)
(-3.95088e-17 0 0)
(-1.44757e-20 0 0)
(2.36261e-16 0 0)
(5.35332e-16 0 0)
(1.72966e-16 0 0)
(-1.91339e-16 0 0)
(6.00353e-17 0 0)
(1.60359e-16 1.30104e-16 0)
(-4.91017e-17 3.16586e-16 0)
(-2.60279e-16 1.27935e-16 0)
(-1.56479e-16 0 0)
(-5.55493e-17 0 0)
(-2.19834e-16 0 0)
(-5.25543e-19 0 0)
(1.80993e-16 2.1684e-18 0)
(5.87056e-17 0 0)
(8.0195e-17 1.71303e-16 0)
(-5.31301e-17 3.55617e-16 0)
(1.30568e-12 2.66713e-16 0)
(5.7261e-09 -1.00614e-15 0)
(2.67045e-06 2.52402e-15 0)
(0.000186103 4.13795e-15 0)
(0.00288479 5.32556e-16 0)
(0.0153657 1.56195e-14 0)
(0.0420193 -1.25576e-14 0)
(0.0790718 1.24169e-14 0)
(0.121522 1.19334e-15 0)
(0.166636 6.73252e-15 0)
(0.213228 4.34516e-15 0)
(0.260764 -1.72543e-16 0)
(0.308969 1.70066e-14 0)
(0.357688 -1.03573e-14 0)
(0.406831 2.12234e-14 0)
(0.456354 2.72539e-14 0)
(0.506244 1.16431e-14 0)
(0.556505 2.37718e-14 0)
(0.607151 2.99006e-14 0)
(0.658182 2.07868e-14 0)
(0.709553 1.38103e-14 0)
(0.761085 1.25284e-14 0)
(0.812317 2.59196e-14 0)
(0.861739 3.30929e-15 0)
(0.905269 -3.80918e-15 0)
(0.932816 -2.50381e-15 0)
(0.937214 9.27117e-15 0)
(0.924925 9.61629e-15 0)
(0.926333 1.39389e-14 0)
(0.927437 8.11554e-15 0)
(0.927642 8.75235e-15 0)
(0.927823 6.93369e-15 0)
(0.927959 3.5243e-15 0)
(0.928242 5.4135e-15 0)
(0.928419 5.04911e-15 0)
(0.928241 8.41609e-15 0)
(0.928045 9.94968e-15 0)
(0.928105 6.54273e-15 0)
(0.928519 5.59577e-15 0)
(0.929001 6.38737e-15 0)
(0.928475 3.91989e-15 0)
(0.928871 2.83291e-15 0)
(0.931394 -6.49806e-15 0)
(0.929345 -4.35807e-15 0)
(0.925686 2.58465e-15 0)
(0.924967 -8.54238e-16 0)
(0.92488 -4.78313e-16 0)
(0.925929 -4.39364e-16 0)
(0.927363 -2.28743e-15 0)
(0.925804 -1.24684e-15 0)
(0.912404 -1.53301e-15 0)
(0.829085 -2.65238e-15 0)
(0.507715 -4.60102e-15 0)
(0.0821835 4.43312e-15 0)
(0.00130203 5.97788e-16 0)
(1.44411e-06 4.34763e-16 0)
(8.15674e-11 3.03576e-17 0)
(1.97641e-15 1.69135e-16 0)
(1.16934e-16 2.33103e-16 0)
(2.63343e-16 2.12503e-16 0)
(8.10647e-17 2.92734e-17 0)
(-1.722e-16 0 0)
(-8.89777e-17 1.30104e-17 0)
(-1.22525e-16 0 0)
(-2.45549e-16 3.25259e-17 0)
(-1.73142e-16 2.81892e-17 0)
(-2.8608e-16 1.82145e-16 0)
(-1.68715e-16 3.01407e-16 0)
(2.17983e-17 1.13841e-16 0)
(2.30954e-16 0 0)
(3.31372e-18 3.79469e-17 0)
(-2.41743e-16 2.80807e-16 0)
(-3.50741e-16 3.12249e-16 0)
(-2.90688e-16 2.32018e-16 0)
(-2.69965e-16 3.25259e-16 0)
(0 0 0)
(2.52399e-16 0 0)
(5.29322e-16 0 0)
(1.17064e-16 1.04083e-16 0)
(-3.6454e-16 3.44775e-16 0)
(-3.25657e-16 5.70288e-16 0)
(-3.30186e-16 2.49366e-16 0)
(-3.06096e-17 0 0)
(-4.72667e-19 0 0)
(2.51906e-16 0 0)
(5.7777e-16 0 0)
(2.12996e-16 2.1684e-18 0)
(-1.46918e-16 5.42099e-17 0)
(8.33403e-17 2.79723e-16 0)
(3.26468e-16 1.51788e-16 0)
(-4.39852e-17 7.80623e-17 0)
(-4.11558e-16 0 0)
(-1.69377e-16 0 0)
(-9.01275e-17 1.01915e-16 0)
(-2.29534e-16 0 0)
(2.33478e-20 0 0)
(2.31607e-16 2.1684e-18 0)
(8.96309e-17 1.53956e-16 0)
(1.48801e-16 4.4669e-16 0)
(3.52352e-17 6.33172e-16 0)
(1.30598e-12 9.77947e-16 0)
(5.7261e-09 -2.38524e-17 0)
(2.67045e-06 2.22912e-15 0)
(0.000186103 1.3444e-14 0)
(0.00288479 -1.73092e-14 0)
(0.0153657 2.79635e-14 0)
(0.0420193 -1.7533e-14 0)
(0.0790718 1.05125e-14 0)
(0.121522 1.0562e-15 0)
(0.166636 5.91566e-15 0)
(0.213228 4.495e-15 0)
(0.260764 4.32852e-15 0)
(0.308969 2.01092e-14 0)
(0.357688 -1.12935e-14 0)
(0.406831 2.28432e-14 0)
(0.456354 2.56661e-14 0)
(0.506244 -4.2627e-15 0)
(0.556505 1.62395e-14 0)
(0.607151 2.53157e-14 0)
(0.658182 2.20983e-14 0)
(0.709553 7.13527e-15 0)
(0.761085 1.27811e-14 0)
(0.812317 1.65326e-14 0)
(0.861739 7.60648e-15 0)
(0.905269 3.67238e-15 0)
(0.932816 -3.06284e-15 0)
(0.937214 8.79136e-15 0)
(0.924925 9.92328e-15 0)
(0.926333 1.48663e-14 0)
(0.927437 9.10155e-15 0)
(0.927642 4.18802e-15 0)
(0.927823 2.18947e-15 0)
(0.927959 1.44462e-15 0)
(0.928242 2.26606e-15 0)
(0.928419 3.52849e-15 0)
(0.928241 8.16272e-15 0)
(0.928045 8.68785e-15 0)
(0.928105 6.72971e-15 0)
(0.928519 7.02966e-15 0)
(0.929001 8.62777e-15 0)
(0.928475 4.05046e-15 0)
(0.928871 4.23984e-15 0)
(0.931394 -2.9924e-15 0)
(0.929345 -1.95174e-15 0)
(0.925686 5.86052e-15 0)
(0.924967 -1.81358e-16 0)
(0.92488 2.24174e-15 0)
(0.925929 -4.10587e-16 0)
(0.927363 -1.83159e-15 0)
(0.925804 -1.60469e-16 0)
(0.912404 8.44891e-16 0)
(0.829085 1.92498e-16 0)
(0.507715 -5.42312e-16 0)
(0.0821835 2.81436e-15 0)
(0.00130203 7.24493e-16 0)
(1.44411e-06 7.45927e-16 0)
(8.15677e-11 1.18178e-16 0)
(2.13394e-15 5.1391e-16 0)
(2.15953e-16 4.23922e-16 0)
(1.48884e-16 1.30104e-16 0)
(-2.03703e-17 -7.26413e-17 0)
(-1.46165e-16 3.57785e-17 0)
(-8.35847e-17 1.65882e-16 0)
(-1.84318e-16 6.39677e-17 0)
(-2.86866e-16 1.65882e-16 0)
(-1.48934e-16 1.66967e-16 0)
(-1.01282e-16 3.69712e-16 0)
(-1.48129e-16 5.08489e-16 0)
(-4.19373e-17 3.8489e-16 0)
(1.27631e-16 2.17924e-16 0)
(2.26709e-17 1.09504e-16 0)
(-1.91889e-16 3.11165e-16 0)
(-3.98908e-16 5.17163e-16 0)
(-3.88379e-16 4.30427e-16 0)
(-4.77047e-16 5.31257e-16 0)
(-2.1684e-18 -2.1684e-18 0)
(2.76436e-16 -2.1684e-18 0)
(5.97269e-16 -2.1684e-18 0)
(1.87718e-16 3.90311e-17 0)
(-3.03082e-16 2.86228e-16 0)
(-6.87321e-16 2.03829e-16 0)
(-3.68178e-16 -2.1684e-18 0)
(-2.02056e-17 -2.1684e-18 0)
(-5.14816e-18 0 0)
(1.41498e-16 0 0)
(4.02479e-16 -4.33679e-18 0)
(2.23057e-16 -1.04083e-16 0)
(1.54709e-16 2.49366e-16 0)
(2.12239e-16 6.00646e-16 0)
(2.71043e-16 3.31765e-16 0)
(-5.29306e-17 0 0)
(-3.70716e-16 -2.1684e-18 0)
(-1.14638e-16 1.17093e-16 0)
(-9.34955e-17 3.55617e-16 0)
(-2.1587e-16 1.73472e-16 0)
(8.5731e-18 0 0)
(2.4036e-16 2.21176e-16 0)
(8.80632e-17 4.33679e-16 0)
(1.37125e-16 2.32018e-16 0)
(3.46461e-16 2.25513e-16 0)
(1.30687e-12 9.93126e-16 0)
(5.7261e-09 -1.86265e-15 0)
(2.67045e-06 5.69639e-15 0)
(0.000186103 1.67925e-14 0)
(0.00288479 -3.32619e-14 0)
(0.0153657 4.01142e-14 0)
(0.0420193 -1.17655e-14 0)
(0.0790718 5.69812e-15 0)
(0.121522 3.58121e-15 0)
(0.166636 3.52137e-15 0)
(0.213228 5.19726e-15 0)
(0.260764 3.11392e-15 0)
(0.308969 2.53432e-14 0)
(0.357688 -1.26341e-14 0)
(0.406831 1.94874e-14 0)
(0.456354 2.06956e-14 0)
(0.506244 -1.16295e-14 0)
(0.556505 1.2452e-14 0)
(0.607151 2.29245e-14 0)
(0.658182 2.15497e-14 0)
(0.709553 5.1044e-15 0)
(0.761085 1.0801e-14 0)
(0.812317 1.36464e-14 0)
(0.861739 7.02614e-15 0)
(0.905269 3.04933e-15 0)
(0.932816 -2.22909e-15 0)
(0.937214 1.04363e-14 0)
(0.924925 1.29291e-14 0)
(0.926333 1.19259e-14 0)
(0.927437 1.09605e-14 0)
(0.927642 2.11814e-15 0)
(0.927823 1.91408e-15 0)
(0.927959 2.84029e-15 0)
(0.928242 -2.82222e-16 0)
(0.928419 2.08278e-15 0)
(0.928241 5.6309e-15 0)
(0.928045 6.69612e-15 0)
(0.928105 7.15964e-15 0)
(0.928519 6.53229e-15 0)
(0.929001 6.69997e-15 0)
(0.928475 2.3128e-15 0)
(0.928871 6.22234e-15 0)
(0.931394 3.00963e-15 0)
(0.929345 8.32209e-16 0)
(0.925686 3.3722e-15 0)
(0.924967 1.49311e-15 0)
(0.92488 4.08342e-15 0)
(0.925929 1.55396e-15 0)
(0.927363 1.27267e-15 0)
(0.925804 2.45113e-15 0)
(0.912404 6.03789e-16 0)
(0.829085 2.02566e-15 0)
(0.507715 2.55836e-15 0)
(0.0821835 1.52866e-15 0)
(0.00130203 1.83343e-15 0)
(1.44411e-06 1.68701e-15 0)
(8.15684e-11 8.26159e-16 0)
(2.15795e-15 7.22076e-16 0)
(-2.24931e-17 5.3451e-16 0)
(-1.46689e-16 2.79723e-16 0)
(-3.21665e-17 1.48535e-16 0)
(2.41121e-17 2.07082e-16 0)
(-1.49783e-16 2.25513e-16 0)
(-2.8627e-16 7.04729e-17 0)
(-1.84484e-16 1.74556e-16 0)
(-7.96647e-17 7.04729e-17 0)
(2.57703e-17 1.8323e-16 0)
(-1.56397e-16 3.7188e-16 0)
(-2.09129e-16 5.84383e-16 0)
(-8.28422e-17 5.05236e-16 0)
(-1.56284e-16 3.26344e-16 0)
(-8.23172e-17 2.01661e-16 0)
(-2.68281e-16 3.03576e-16 0)
(-5.24064e-16 2.11419e-16 0)
(-7.19908e-16 2.9707e-16 0)
(-2.1684e-18 2.1684e-18 0)
(2.54514e-16 2.1684e-18 0)
(5.8012e-16 2.1684e-18 0)
(1.56981e-16 1.66967e-16 0)
(-6.08415e-16 -1.6263e-16 0)
(-6.55713e-16 -5.44268e-16 0)
(-3.14769e-16 -2.40692e-16 0)
(-1.68099e-18 2.1684e-18 0)
(-2.2273e-17 0 0)
(1.5826e-16 -2.1684e-18 0)
(4.15928e-16 6.50519e-17 0)
(2.34849e-16 2.27682e-16 0)
(4.06831e-16 6.28835e-17 0)
(2.23562e-16 2.4286e-16 0)
(2.85648e-16 6.28835e-17 0)
(-5.08832e-17 9.32411e-17 0)
(-3.9194e-16 2.1684e-18 0)
(-1.3984e-16 2.1684e-18 0)
(-9.05526e-17 -1.51788e-17 0)
(-2.69742e-16 0 0)
(6.59658e-17 0 0)
(3.49598e-16 2.62376e-16 0)
(5.68997e-17 8.23991e-17 0)
(-1.23666e-16 -1.73472e-17 0)
(7.03712e-17 -2.68881e-16 0)
(1.30825e-12 8.13149e-16 0)
(5.7261e-09 3.36101e-16 0)
(2.67045e-06 2.76254e-15 0)
(0.000186103 2.33421e-14 0)
(0.00288479 -4.34805e-14 0)
(0.0153657 3.34424e-14 0)
(0.0420193 -4.52595e-15 0)
(0.0790718 -8.19981e-16 0)
(0.121522 4.81785e-15 0)
(0.166636 -3.37251e-15 0)
(0.213228 9.04732e-15 0)
(0.260764 -1.42925e-15 0)
(0.308969 2.63401e-14 0)
(0.357688 -1.22622e-14 0)
(0.406831 1.58436e-14 0)
(0.456354 2.13355e-14 0)
(0.506244 -1.35989e-14 0)
(0.556505 9.94062e-15 0)
(0.607151 1.97356e-14 0)
(0.658182 2.00778e-14 0)
(0.709553 5.14138e-15 0)
(0.761085 7.50475e-15 0)
(0.812317 1.27544e-14 0)
(0.861739 4.6976e-15 0)
(0.905269 5.48806e-15 0)
(0.932816 4.13677e-15 0)
(0.937214 7.19328e-15 0)
(0.924925 9.3407e-15 0)
(0.926333 5.75673e-15 0)
(0.927437 9.58058e-15 0)
(0.927642 2.71643e-15 0)
(0.927823 1.77749e-15 0)
(0.927959 4.18384e-15 0)
(0.928242 -4.01736e-15 0)
(0.928419 -9.82163e-16 0)
(0.928241 3.48999e-15 0)
(0.928045 5.41344e-15 0)
(0.928105 7.80006e-15 0)
(0.928519 2.35707e-15 0)
(0.929001 7.03991e-15 0)
(0.928475 3.42019e-16 0)
(0.928871 5.68241e-15 0)
(0.931394 7.97298e-15 0)
(0.929345 1.02256e-15 0)
(0.925686 3.32223e-16 0)
(0.924967 2.91616e-16 0)
(0.92488 3.84916e-15 0)
(0.925929 5.76055e-16 0)
(0.927363 3.58369e-15 0)
(0.925804 3.679e-15 0)
(0.912404 -2.90771e-16 0)
(0.829085 3.20222e-15 0)
(0.507715 3.03378e-15 0)
(0.0821835 -8.83789e-16 0)
(0.00130203 5.61834e-15 0)
(1.44411e-06 4.14922e-15 0)
(8.15672e-11 8.988e-16 0)
(1.97715e-15 4.94394e-16 0)
(-1.45277e-16 3.1767e-16 0)
(-1.49323e-16 4.19585e-16 0)
(-3.9538e-17 4.10911e-16 0)
(-3.3917e-17 3.74048e-16 0)
(-3.55137e-16 2.30934e-16 0)
(-4.85625e-16 2.20092e-16 0)
(-3.55944e-16 7.92036e-32 0)
(-1.77688e-17 -1.36609e-16 0)
(2.22589e-16 -1.18178e-16 0)
(1.16218e-16 4.01153e-17 0)
(3.85827e-17 4.09827e-16 0)
(3.35231e-17 6.60277e-16 0)
(-1.86794e-16 5.41015e-16 0)
(-3.06888e-16 1.48535e-16 0)
(-4.66037e-16 -1.35525e-16 0)
(-6.7142e-16 -8.23991e-17 0)
(-8.45675e-16 -1.94071e-16 0)
(0 0 0)
(1.55283e-16 0 0)
(2.69344e-16 -1.47451e-16 0)
(-1.32564e-16 -4.03322e-16 0)
(-7.05885e-16 -5.70288e-16 0)
(-3.78851e-16 -2.45029e-16 0)
(-8.2929e-17 -2.1684e-17 0)
(4.48114e-17 0 0)
(-4.46654e-17 0 0)
(1.67585e-16 3.90311e-17 0)
(4.30858e-16 3.07912e-16 0)
(2.39229e-16 4.87889e-16 0)
(-2.13002e-17 2.23345e-16 0)
(8.27802e-17 -1.01915e-16 0)
(3.09632e-16 -6.50519e-17 0)
(-4.67903e-17 -9.54094e-17 0)
(-4.01945e-16 0 0)
(-1.83124e-16 -9.97462e-17 0)
(-3.20402e-17 -3.81638e-16 0)
(-2.05937e-17 -1.36609e-16 0)
(2.42096e-16 0 0)
(5.63792e-17 1.95156e-17 0)
(-1.88483e-16 -2.27682e-16 0)
(-2.37913e-17 -4.55363e-17 0)
(9.68341e-17 -1.14925e-16 0)
(1.3093e-12 1.92987e-16 0)
(5.7261e-09 1.87783e-15 0)
(2.67045e-06 -2.67581e-15 0)
(0.000186103 2.19715e-14 0)
(0.00288479 -3.2099e-14 0)
(0.0153657 1.55778e-14 0)
(0.0420193 6.62938e-15 0)
(0.0790718 -2.68959e-15 0)
(0.121522 4.68793e-15 0)
(0.166636 -6.75003e-15 0)
(0.213228 1.02655e-14 0)
(0.260764 -3.59079e-15 0)
(0.308969 2.41251e-14 0)
(0.357688 -1.10372e-14 0)
(0.406831 1.21053e-14 0)
(0.456354 2.00896e-14 0)
(0.506244 -1.24217e-14 0)
(0.556505 6.96714e-15 0)
(0.607151 1.49149e-14 0)
(0.658182 1.7664e-14 0)
(0.709553 4.98113e-15 0)
(0.761085 6.22211e-15 0)
(0.812317 1.12801e-14 0)
(0.861739 4.54625e-15 0)
(0.905269 7.6022e-15 0)
(0.932816 5.14194e-15 0)
(0.937214 6.18967e-15 0)
(0.924925 5.60956e-15 0)
(0.926333 4.795e-15 0)
(0.927437 9.37696e-15 0)
(0.927642 1.70563e-15 0)
(0.927823 -4.92337e-16 0)
(0.927959 2.22844e-15 0)
(0.928242 -7.02975e-15 0)
(0.928419 -3.4126e-15 0)
(0.928241 2.22731e-15 0)
(0.928045 4.5465e-15 0)
(0.928105 6.68132e-15 0)
(0.928519 1.54888e-15 0)
(0.929001 6.34126e-15 0)
(0.928475 -5.40814e-16 0)
(0.928871 3.75459e-15 0)
(0.931394 6.49856e-15 0)
(0.929345 -1.61311e-15 0)
(0.925686 1.33353e-15 0)
(0.924967 4.27634e-16 0)
(0.92488 2.3684e-15 0)
(0.925929 -1.1665e-15 0)
(0.927363 1.38446e-17 0)
(0.925804 1.70057e-15 0)
(0.912404 -1.01511e-15 0)
(0.829085 2.7442e-15 0)
(0.507715 1.491e-15 0)
(0.0821835 -6.37381e-15 0)
(0.00130203 5.14293e-15 0)
(1.44411e-06 2.2226e-15 0)
(8.15675e-11 1.45283e-16 0)
(1.87286e-15 1.7564e-16 0)
(-1.78718e-16 5.85467e-17 0)
(1.03382e-17 2.48281e-16 0)
(1.28428e-16 4.58616e-16 0)
(-5.92426e-17 2.2985e-16 0)
(-4.31458e-16 5.42099e-17 0)
(-6.75404e-16 8.89043e-17 0)
(-5.08631e-16 -8.78201e-17 0)
(-1.67015e-16 4.33679e-18 0)
(8.71992e-17 -2.56955e-16 0)
(3.49872e-16 -1.95156e-16 0)
(3.45096e-16 1.06251e-16 0)
(1.15655e-16 4.06574e-16 0)
(-2.73334e-16 3.20923e-16 0)
(-5.43549e-16 -6.17993e-17 0)
(-6.26193e-16 -3.08997e-16 0)
(-5.23991e-16 -2.53702e-16 0)
(-6.25582e-16 -3.55617e-16 0)
(0 0 0)
(1.8254e-16 -1.19262e-16 0)
(-4.43874e-17 -4.597e-16 0)
(-1.42286e-16 -8.28327e-16 0)
(-3.64735e-16 -6.07151e-16 0)
(-8.35605e-17 -2.34187e-16 0)
(1.63518e-16 0 0)
(1.18239e-16 0 0)
(-5.15291e-17 0 0)
(1.73407e-16 0 0)
(4.18031e-16 7.15571e-17 0)
(2.01587e-17 2.2985e-16 0)
(-3.2396e-16 0 0)
(-3.7827e-17 -5.20415e-17 0)
(2.14733e-16 0 0)
(1.54928e-17 -9.32411e-17 0)
(-2.49603e-16 0 0)
(-2.24259e-16 0 0)
(-4.16648e-17 -1.17093e-16 0)
(1.58306e-17 0 0)
(2.21694e-16 0 0)
(3.57859e-18 -9.32411e-17 0)
(-1.7586e-16 -4.55363e-17 0)
(-3.07851e-17 0 0)
(9.02831e-17 0 0)
(1.30935e-12 -4.33679e-18 0)
(5.7261e-09 1.23165e-15 0)
(2.67045e-06 -1.7087e-15 0)
(0.000186103 6.79899e-15 0)
(0.00288479 -9.24691e-15 0)
(0.0153657 4.67267e-15 0)
(0.0420193 1.0507e-14 0)
(0.0790718 -2.12012e-15 0)
(0.121522 4.56162e-15 0)
(0.166636 -7.14032e-15 0)
(0.213228 1.13092e-14 0)
(0.260764 -1.99579e-15 0)
(0.308969 1.9179e-14 0)
(0.357688 -8.5975e-15 0)
(0.406831 9.10259e-15 0)
(0.456354 1.5597e-14 0)
(0.506244 -7.47541e-15 0)
(0.556505 4.6886e-15 0)
(0.607151 1.06692e-14 0)
(0.658182 1.46977e-14 0)
(0.709553 4.9914e-15 0)
(0.761085 7.87723e-15 0)
(0.812317 8.50405e-15 0)
(0.861739 6.57926e-15 0)
(0.905269 4.02681e-15 0)
(0.932816 8.77981e-15 0)
(0.937214 9.54255e-15 0)
(0.924925 5.55977e-15 0)
(0.926333 5.09282e-15 0)
(0.927437 9.55231e-15 0)
(0.927642 -2.31186e-16 0)
(0.927823 -2.63003e-16 0)
(0.927959 -4.80905e-16 0)
(0.928242 -4.52861e-15 0)
(0.928419 -2.76434e-15 0)
(0.928241 1.0711e-16 0)
(0.928045 1.73287e-15 0)
(0.928105 2.24819e-15 0)
(0.928519 5.02569e-16 0)
(0.929001 2.04288e-15 0)
(0.928475 1.41416e-16 0)
(0.928871 2.53805e-15 0)
(0.931394 2.09407e-15 0)
(0.929345 3.39143e-16 0)
(0.925686 9.53404e-16 0)
(0.924967 1.03663e-15 0)
(0.92488 1.14249e-15 0)
(0.925929 -8.83353e-16 0)
(0.927363 -1.21063e-15 0)
(0.925804 2.18402e-16 0)
(0.912404 -1.35038e-16 0)
(0.829085 1.72419e-15 0)
(0.507715 3.28695e-16 0)
(0.0821835 -1.7038e-15 0)
(0.00130203 1.45007e-15 0)
(1.44411e-06 4.80299e-16 0)
(8.15678e-11 -1.12757e-16 0)
(1.94427e-15 0 0)
(-1.51036e-16 0 0)
(5.20113e-17 7.26413e-17 0)
(2.14491e-16 2.52618e-16 0)
(8.1572e-19 4.22837e-17 0)
(-4.11498e-16 0 0)
(-6.74011e-16 0 0)
(-4.98236e-16 0 0)
(-3.14532e-16 -1.6263e-17 0)
(5.13169e-17 -9.97462e-17 0)
(3.89274e-16 -9.8662e-17 0)
(4.48727e-16 0 0)
(1.68725e-16 0 0)
(-3.06869e-16 4.11995e-17 0)
(-5.84964e-16 5.85467e-17 0)
(-5.53209e-16 -9.64936e-17 0)
(-4.51806e-16 -4.33679e-17 0)
(-4.22837e-16 -1.44198e-16 0)
(2.92734e-16 1.99492e-16 0)
(2.73295e-16 0 0)
(-8.51508e-17 -1.84314e-16 0)
(-1.04771e-16 -4.90058e-16 0)
(-3.05207e-17 -2.34187e-16 0)
(8.60185e-17 0 0)
(3.80023e-16 1.56125e-16 0)
(1.68057e-16 3.59954e-16 0)
(-3.43673e-17 2.23345e-16 0)
(2.20658e-16 4.11995e-17 0)
(4.35516e-16 0 0)
(6.4887e-17 0 0)
(-3.02961e-16 0 0)
(-1.19265e-17 -7.37255e-17 0)
(2.25918e-16 0 0)
(3.38565e-18 9.32411e-17 0)
(-2.931e-16 8.89043e-17 0)
(-3.49883e-16 0 0)
(-8.77363e-17 0 0)
(5.03646e-17 0 0)
(2.23804e-16 0 0)
(6.05387e-18 9.32411e-17 0)
(-2.39679e-16 0 0)
(-6.64889e-17 0 0)
(4.18187e-17 0 0)
(1.30935e-12 1.66967e-16 0)
(5.7261e-09 -1.99926e-15 0)
(2.67045e-06 3.16587e-16 0)
(0.000186103 -7.55805e-15 0)
(0.00288479 1.25422e-15 0)
(0.0153657 3.89499e-15 0)
(0.0420193 4.67764e-15 0)
(0.0790718 5.88717e-15 0)
(0.121522 3.5788e-15 0)
(0.166636 -7.53436e-15 0)
(0.213228 1.28114e-14 0)
(0.260764 -1.48088e-15 0)
(0.308969 1.28148e-14 0)
(0.357688 -5.20531e-15 0)
(0.406831 8.24003e-15 0)
(0.456354 1.14252e-14 0)
(0.506244 -2.39851e-15 0)
(0.556505 3.96523e-15 0)
(0.607151 7.18673e-15 0)
(0.658182 1.12159e-14 0)
(0.709553 1.6775e-15 0)
(0.761085 7.66778e-15 0)
(0.812317 5.99131e-15 0)
(0.861739 9.03531e-15 0)
(0.905269 4.0007e-15 0)
(0.932816 1.33439e-14 0)
(0.937214 8.50874e-15 0)
(0.924925 5.5623e-15 0)
(0.926333 6.01328e-15 0)
(0.927437 4.83159e-15 0)
(0.927642 -2.01684e-15 0)
(0.927823 1.49924e-16 0)
(0.927959 -9.45917e-16 0)
(0.928242 -3.43763e-15 0)
(0.928419 -1.18417e-15 0)
(0.928241 -1.59565e-15 0)
(0.928045 4.52499e-16 0)
(0.928105 -5.18414e-17 0)
(0.928519 1.43538e-16 0)
(0.929001 -1.9025e-15 0)
(0.928475 1.13404e-16 0)
(0.928871 2.41649e-16 0)
(0.931394 1.60513e-15 0)
(0.929345 2.42736e-15 0)
(0.925686 -4.68718e-16 0)
(0.924967 -1.78576e-15 0)
(0.92488 -9.55596e-16 0)
(0.925929 -6.48511e-16 0)
(0.927363 -1.35164e-15 0)
(0.925804 -1.03254e-15 0)
(0.912404 -1.71772e-16 0)
(0.829085 1.06261e-15 0)
(0.507715 -1.18532e-15 0)
(0.0821835 2.34867e-15 0)
(0.00130203 -7.91636e-16 0)
(1.44411e-06 -6.77623e-16 0)
(8.1568e-11 -3.43691e-16 0)
(2.16997e-15 -2.95986e-16 0)
(9.15561e-17 -1.17093e-16 0)
(1.94859e-16 -6.50519e-18 0)
(1.36097e-16 4.33679e-17 0)
(-8.30578e-18 0 0)
(-3.60628e-16 0 0)
(-6.15607e-16 7.48097e-17 0)
(-5.92096e-16 1.9624e-16 0)
(-3.81108e-16 -1.51788e-17 0)
(7.09197e-17 -1.0842e-18 0)
(4.56724e-16 0 0)
(5.47192e-16 -1.52872e-16 0)
(3.46522e-16 -2.87313e-16 0)
(-3.86921e-17 -5.85467e-17 0)
(-4.92259e-16 2.27682e-16 0)
(-7.39875e-16 1.60461e-16 0)
(-6.24262e-16 2.75386e-16 0)
(-5.29089e-16 2.0925e-16 0)
(6.52687e-16 4.83552e-16 0)
(3.95848e-16 1.84314e-16 0)
(-1.07773e-16 1.49619e-16 0)
(-2.86038e-16 -1.71303e-16 0)
(-8.57215e-17 2.1684e-18 0)
(2.90032e-16 4.98731e-17 0)
(4.45161e-16 4.53195e-16 0)
(1.73893e-16 7.19908e-16 0)
(-1.21573e-17 5.33426e-16 0)
(2.46597e-16 2.66713e-16 0)
(3.58984e-16 1.38777e-16 0)
(8.23218e-17 -1.38777e-16 0)
(-2.21684e-16 -7.80623e-17 0)
(-7.22491e-18 -2.66713e-16 0)
(2.31253e-16 -6.07151e-17 0)
(-2.96982e-17 4.11995e-17 0)
(-3.28286e-16 3.3827e-16 0)
(-4.60584e-16 1.56125e-16 0)
(-1.66198e-16 0 0)
(6.49804e-17 0 0)
(2.22917e-16 0 0)
(1.37899e-17 -3.03576e-17 0)
(-2.89147e-16 0 0)
(-1.08657e-16 0 0)
(-8.77451e-17 0 0)
(1.30958e-12 1.38777e-16 0)
(5.72609e-09 -3.42173e-15 0)
(2.67045e-06 6.31005e-16 0)
(0.000186103 -1.47691e-14 0)
(0.00288479 7.13625e-15 0)
(0.0153657 1.11929e-14 0)
(0.0420193 -7.67772e-15 0)
(0.0790718 1.49476e-14 0)
(0.121522 1.92955e-15 0)
(0.166636 -6.24716e-15 0)
(0.213228 1.44348e-14 0)
(0.260764 -4.63284e-16 0)
(0.308969 6.45492e-15 0)
(0.357688 -1.94347e-15 0)
(0.406831 8.39334e-15 0)
(0.456354 5.37236e-15 0)
(0.506244 1.83874e-15 0)
(0.556505 3.87814e-15 0)
(0.607151 3.26627e-15 0)
(0.658182 6.31507e-15 0)
(0.709553 -2.52703e-15 0)
(0.761085 7.6138e-15 0)
(0.812317 5.6077e-15 0)
(0.861739 7.90321e-15 0)
(0.905269 4.94709e-15 0)
(0.932816 1.24004e-14 0)
(0.937214 5.10255e-15 0)
(0.924925 2.99506e-15 0)
(0.926333 4.8277e-15 0)
(0.927437 -3.4593e-16 0)
(0.927642 -3.01843e-15 0)
(0.927823 5.83816e-16 0)
(0.927959 -1.7469e-15 0)
(0.928242 -2.47438e-15 0)
(0.928419 2.30175e-16 0)
(0.928241 -2.95864e-15 0)
(0.928045 2.51903e-16 0)
(0.928105 -2.07884e-15 0)
(0.928519 4.77719e-16 0)
(0.929001 -3.14431e-15 0)
(0.928475 1.61612e-15 0)
(0.928871 -7.14207e-16 0)
(0.931394 -5.77098e-16 0)
(0.929345 4.89269e-15 0)
(0.925686 -2.34153e-15 0)
(0.924967 -3.52978e-15 0)
(0.92488 -2.47034e-15 0)
(0.925929 -2.36383e-17 0)
(0.927363 8.8195e-17 0)
(0.925804 -1.28888e-15 0)
(0.912404 5.90855e-16 0)
(0.829085 -8.04841e-16 0)
(0.507715 -2.59432e-15 0)
(0.0821835 3.32762e-15 0)
(0.00130203 -4.41735e-15 0)
(1.44411e-06 -2.52726e-15 0)
(8.1568e-11 -5.56194e-16 0)
(2.25411e-15 -5.4752e-16 0)
(2.01705e-16 -3.18754e-16 0)
(2.48552e-16 -1.77809e-16 0)
(1.85045e-16 0 0)
(4.24627e-17 0 0)
(-1.24978e-16 -6.72203e-17 0)
(-4.07577e-16 1.78893e-16 0)
(-6.28992e-16 4.01153e-16 0)
(-3.93752e-16 1.85398e-16 0)
(4.236e-17 4.01153e-17 0)
(4.13019e-16 9.10727e-17 0)
(5.65677e-16 -3.40438e-16 0)
(3.8518e-16 -5.20415e-16 0)
(1.18796e-16 -2.55871e-16 0)
(-3.85811e-16 7.58939e-17 0)
(-7.15133e-16 3.61038e-16 0)
(-6.50711e-16 5.18247e-16 0)
(-7.53518e-16 4.35848e-16 0)
(8.73864e-16 2.45029e-16 0)
(4.68525e-16 1.04083e-16 0)
(-1.08618e-16 1.34441e-16 0)
(-3.23355e-16 2.34187e-16 0)
(1.50762e-17 9.97462e-17 0)
(4.13738e-16 2.66713e-16 0)
(6.27718e-16 2.73218e-16 0)
(2.52365e-16 3.90311e-16 0)
(-1.96963e-16 3.53449e-16 0)
(2.89256e-16 2.68881e-16 0)
(-6.49923e-18 -2.81892e-17 0)
(-1.38726e-16 -2.53702e-16 0)
(-2.09001e-16 -1.73472e-17 0)
(-2.68854e-17 9.97462e-17 0)
(2.49762e-16 1.73472e-17 0)
(1.61325e-16 -1.51788e-16 0)
(-1.67191e-16 1.25767e-16 0)
(-5.39182e-16 2.34187e-16 0)
(-2.33216e-16 8.89043e-17 0)
(6.85809e-17 1.92987e-16 0)
(-1.58751e-16 4.11995e-17 0)
(-8.63599e-17 -1.95156e-16 0)
(1.2014e-16 3.03576e-17 0)
(-5.2387e-17 2.47197e-16 0)
(-1.32339e-16 1.64798e-16 0)
(1.30889e-12 -8.02307e-16 0)
(5.72609e-09 -1.043e-15 0)
(2.67045e-06 -1.18828e-15 0)
(0.000186103 -6.97032e-15 0)
(0.00288479 -2.93449e-16 0)
(0.0153657 1.96177e-14 0)
(0.0420193 -1.83319e-14 0)
(0.0790718 2.12001e-14 0)
(0.121522 -3.11566e-16 0)
(0.166636 -5.41529e-15 0)
(0.213228 1.32778e-14 0)
(0.260764 -2.40473e-16 0)
(0.308969 2.1696e-16 0)
(0.357688 -2.73893e-15 0)
(0.406831 7.93805e-15 0)
(0.456354 -1.00934e-15 0)
(0.506244 6.2558e-15 0)
(0.556505 4.00789e-15 0)
(0.607151 -3.18706e-16 0)
(0.658182 2.65434e-15 0)
(0.709553 -2.52909e-15 0)
(0.761085 4.61341e-15 0)
(0.812317 4.5454e-15 0)
(0.861739 7.30737e-15 0)
(0.905269 -1.39782e-15 0)
(0.932816 1.20927e-14 0)
(0.937214 7.84234e-15 0)
(0.924925 3.85895e-15 0)
(0.926333 1.91108e-15 0)
(0.927437 -8.95797e-16 0)
(0.927642 -2.77105e-15 0)
(0.927823 -1.21655e-16 0)
(0.927959 -3.32152e-15 0)
(0.928242 -7.16067e-16 0)
(0.928419 -2.6891e-17 0)
(0.928241 -7.59157e-16 0)
(0.928045 -4.2999e-16 0)
(0.928105 -3.22108e-15 0)
(0.928519 -1.75436e-16 0)
(0.929001 -3.22511e-15 0)
(0.928475 9.872e-16 0)
(0.928871 3.34891e-16 0)
(0.931394 -4.7926e-15 0)
(0.929345 2.94557e-15 0)
(0.925686 -2.01497e-15 0)
(0.924967 -4.19287e-15 0)
(0.92488 -3.88417e-15 0)
(0.925929 -1.24564e-15 0)
(0.927363 3.77905e-16 0)
(0.925804 -2.00151e-15 0)
(0.912404 7.84357e-16 0)
(0.829085 -1.26175e-15 0)
(0.507715 6.47322e-18 0)
(0.0821835 -6.27662e-17 0)
(0.00130203 -2.79076e-15 0)
(1.44411e-06 -1.9418e-15 0)
(8.1568e-11 -8.34833e-17 0)
(2.4873e-15 -3.88143e-16 0)
(1.98258e-16 -2.80807e-16 0)
(3.02203e-16 -1.4203e-16 0)
(2.1882e-16 0 0)
(6.55021e-17 -9.43252e-17 0)
(4.71246e-17 -2.39608e-16 0)
(-1.64766e-16 -8.67359e-18 0)
(-3.93647e-16 2.39608e-16 0)
(-2.87874e-16 3.69712e-16 0)
(-8.5298e-17 1.69135e-16 0)
(2.02719e-16 6.93887e-17 0)
(3.08095e-16 -1.51788e-16 0)
(5.01084e-16 -3.0466e-16 0)
(2.47325e-16 -1.56125e-16 0)
(-2.25646e-16 -1.05167e-16 0)
(-5.50824e-16 1.95156e-16 0)
(-7.23458e-16 3.19838e-16 0)
(-9.11811e-16 2.95986e-16 0)
(6.61361e-16 -2.1684e-18 0)
(3.39517e-16 2.55871e-16 0)
(-3.91364e-17 3.12249e-16 0)
(-2.74769e-17 5.2692e-16 0)
(1.9305e-16 3.66459e-16 0)
(4.09542e-16 5.72457e-16 0)
(4.32052e-16 3.49112e-16 0)
(1.67475e-16 8.23991e-17 0)
(2.48379e-17 1.97324e-16 0)
(-7.88669e-17 -9.97462e-17 0)
(-3.24869e-16 -3.46943e-16 0)
(-7.14035e-17 -9.97462e-17 0)
(-2.12708e-16 2.1684e-16 0)
(1.51968e-17 4.7271e-16 0)
(2.33481e-16 2.58039e-16 0)
(8.84949e-17 3.03576e-17 0)
(-8.13026e-17 1.30104e-16 0)
(-3.55634e-16 4.0549e-16 0)
(-1.05604e-16 2.9707e-16 0)
(8.36179e-17 4.79216e-16 0)
(-1.53538e-16 2.47197e-16 0)
(-1.00242e-16 6.28835e-17 0)
(1.47057e-16 2.7105e-16 0)
(1.02515e-16 5.5511e-16 0)
(-2.45587e-17 3.79469e-16 0)
(1.30777e-12 1.32272e-16 0)
(5.72609e-09 -2.47848e-15 0)
(2.67045e-06 -1.47668e-15 0)
(0.000186103 5.47173e-15 0)
(0.00288479 -8.71001e-15 0)
(0.0153657 2.1819e-14 0)
(0.0420193 -2.36972e-14 0)
(0.0790718 2.01365e-14 0)
(0.121522 -1.07545e-15 0)
(0.166636 -3.43006e-15 0)
(0.213228 8.62127e-15 0)
(0.260764 -2.71721e-18 0)
(0.308969 -2.39791e-15 0)
(0.357688 -1.30947e-15 0)
(0.406831 8.37475e-15 0)
(0.456354 -7.16261e-15 0)
(0.506244 9.66358e-15 0)
(0.556505 4.16251e-15 0)
(0.607151 -4.54017e-15 0)
(0.658182 2.83626e-16 0)
(0.709553 -2.29076e-15 0)
(0.761085 2.45192e-15 0)
(0.812317 5.56117e-16 0)
(0.861739 5.72601e-15 0)
(0.905269 -3.07669e-15 0)
(0.932816 1.30467e-14 0)
(0.937214 4.78107e-15 0)
(0.924925 1.28885e-15 0)
(0.926333 -1.77233e-15 0)
(0.927437 -1.00507e-15 0)
(0.927642 -4.06893e-15 0)
(0.927823 -3.02771e-15 0)
(0.927959 -3.18897e-15 0)
(0.928242 1.43277e-15 0)
(0.928419 -4.95884e-16 0)
(0.928241 6.88613e-16 0)
(0.928045 -1.42403e-15 0)
(0.928105 -2.0975e-15 0)
(0.928519 -1.20357e-15 0)
(0.929001 -4.491e-15 0)
(0.928475 -2.41401e-15 0)
(0.928871 1.5817e-15 0)
(0.931394 -2.95896e-15 0)
(0.929345 -1.99022e-15 0)
(0.925686 5.58341e-16 0)
(0.924967 -1.43232e-15 0)
(0.92488 -7.25965e-16 0)
(0.925929 -9.87669e-16 0)
(0.927363 -6.54797e-16 0)
(0.925804 1.415e-16 0)
(0.912404 6.27589e-16 0)
(0.829085 2.96491e-16 0)
(0.507715 2.29008e-15 0)
(0.0821835 -3.84291e-15 0)
(0.00130203 8.36037e-16 0)
(1.44411e-06 1.13732e-15 0)
(8.15671e-11 -1.0842e-17 0)
(2.23445e-15 8.78201e-17 0)
(2.67754e-16 -5.20415e-17 0)
(3.18568e-16 -1.0842e-17 0)
(1.21969e-16 -4.33679e-17 0)
(-5.00953e-17 -2.13587e-16 0)
(6.3977e-17 -8.13149e-17 0)
(5.03059e-17 0 0)
(-1.15597e-16 -1.95156e-17 0)
(-2.51114e-16 1.74556e-16 0)
(-1.28079e-16 6.83045e-17 0)
(5.9856e-17 2.2985e-16 0)
(2.09929e-16 2.7105e-16 0)
(3.412e-16 9.97462e-17 0)
(9.6872e-17 -1.50704e-16 0)
(-2.86984e-16 -2.6346e-16 0)
(-5.4552e-16 -2.1684e-18 0)
(-6.54045e-16 7.58939e-17 0)
(-8.27243e-16 1.22514e-16 0)
(8.60853e-16 -2.21176e-16 0)
(4.6394e-16 -9.97462e-17 0)
(-2.42614e-17 -3.90311e-17 0)
(-8.83164e-17 2.36355e-16 0)
(2.63191e-16 1.86482e-16 0)
(6.03893e-16 2.9707e-16 0)
(2.65349e-16 -4.11995e-17 0)
(3.44357e-17 -3.96817e-16 0)
(-2.13241e-16 -2.47197e-16 0)
(-4.41262e-16 -4.66205e-16 0)
(-1.05067e-16 -1.25767e-16 0)
(1.8645e-16 1.60461e-16 0)
(-3.05285e-17 3.68627e-17 0)
(-2.11499e-16 2.47197e-16 0)
(-3.85015e-17 -4.33679e-18 0)
(2.72351e-16 -7.37255e-17 0)
(1.58587e-16 -1.6263e-16 0)
(-4.15064e-17 2.38524e-17 0)
(1.13406e-17 4.33679e-18 0)
(7.76582e-17 5.63783e-17 0)
(-1.04948e-16 -1.19262e-16 0)
(-8.06724e-17 4.33679e-18 0)
(1.53173e-16 8.89043e-17 0)
(2.68363e-17 1.95156e-16 0)
(-1.22869e-16 1.30104e-17 0)
(1.30825e-12 5.5511e-16 0)