/*--------------------------------*- C++ -*----------------------------------*\
| =========                 |                                                 |
| \\      /  F ield         | OpenFOAM: The Open Source CFD Toolbox           |
|  \\    /   O peration     | Version:  4.1                                   |
|   \\  /    A nd           | Web:      www.OpenFOAM.org                      |
|    \\/     M anipulation  |                                                 |
\*---------------------------------------------------------------------------*/
FoamFile
{
    version     2.0;
    format      ascii;
    class       volVectorField;
    location    "0.06";
    object      U;
}
// * * * * * * * * * * * * * * * * * * * * * * * * * * * * * * * * * * * * * //

dimensions      [0 1 -1 0 0 0 0];

internalField   nonuniform List<vector> 
10000
(
(0 0 0)
(3.05706e-18 0 0)
(5.23266e-17 0 0)
(3.34223e-18 9.32411e-17 0)
(-3.21329e-17 0 0)
(-2.38645e-18 0 0)
(-4.51847e-18 0 0)
(2.07754e-20 0 0)
(1.26652e-33 0 0)
(8.06958e-17 1.0842e-16 0)
(2.78512e-16 0 0)
(-1.44063e-17 -1.47451e-16 0)
(-3.0816e-16 0 0)
(-5.14431e-17 0 0)
(5.39156e-17 0 0)
(3.05708e-18 9.32411e-17 0)
(-5.63831e-17 0 0)
(-2.02695e-18 0 0)
(-2.18349e-22 0 0)
(-6.3002e-20 0 0)
(3.50381e-23 0 0)
(-4.33371e-18 9.32411e-17 0)
(2.08622e-18 0 0)
(3.66695e-18 0 0)
(5.49855e-20 0 0)
(-2.66772e-18 0 0)
(-1.72482e-16 -1.17093e-16 0)
(5.1348e-19 4.55363e-17 0)
(1.65236e-16 0 0)
(3.46186e-19 1.2143e-16 0)
(-9.70234e-17 0 0)
(-1.68229e-25 -9.97462e-17 0)
(6.28719e-17 -2.1684e-18 0)
(-1.18747e-16 0 0)
(-1.23564e-19 0 0)
(1.39929e-17 1.6263e-16 0)
(-5.26021e-17 0 0)
(2.21712e-17 0 0)
(-1.63849e-16 0 0)
(1.65288e-17 -1.06251e-16 0)
(3.22079e-15 0 0)
(6.71647e-11 3.25259e-17 0)
(2.28096e-07 1.44198e-15 0)
(7.35432e-05 -6.15863e-16 0)
(0.00332049 -2.60943e-16 0)
(0.0336304 -3.91086e-15 0)
(0.127823 -4.42186e-15 0)
(0.282125 2.17731e-15 0)
(0.457984 -1.50808e-15 0)
(0.678712 -4.69863e-17 0)
(0.896332 3.09696e-15 0)
(0.960345 3.58432e-15 0)
(0.93571 3.54464e-15 0)
(0.939322 2.61131e-15 0)
(0.820008 -5.41425e-16 0)
(0.458186 -6.80737e-17 0)
(0.0645191 6.82814e-16 0)
(0.00095625 -1.46246e-15 0)
(1.08092e-06 -1.83229e-16 0)
(6.82178e-11 -5.20415e-17 0)
(1.70487e-15 1.0842e-17 0)
(-5.55879e-17 0 0)
(1.29181e-18 0 0)
(1.02232e-16 -6.61361e-17 0)
(-1.45551e-18 -2.15755e-16 0)
(-1.04508e-16 -5.74625e-17 0)
(-1.77907e-18 0 0)
(-1.3143e-21 0 0)
(7.46753e-17 0 0)
(2.26455e-16 0 0)
(2.63403e-17 0 0)
(-1.65982e-16 0 0)
(-3.08138e-18 1.07336e-16 0)
(-1.99403e-17 3.43691e-16 0)
(-1.15209e-16 1.44198e-16 0)
(3.42549e-17 0 0)
(2.16984e-16 0 0)
(1.49423e-17 0 0)
(-1.83422e-16 6.93887e-17 0)
(1.30112e-17 0 0)
(2.14041e-16 0 0)
(1.01375e-17 0 0)
(-1.93469e-16 0 0)
(1.08657e-17 0 0)
(2.11923e-16 5.52941e-17 0)
(8.16015e-17 0 0)
(-1.01813e-16 0 0)
(-2.4045e-18 0 0)
(-2.21601e-19 0 0)
(-1.58871e-17 0 0)
(-6.2129e-17 -5.42099e-18 0)
(-1.98595e-16 0 0)
(-3.76531e-17 0 0)
(5.50906e-17 0 0)
(2.13035e-16 0 0)
(8.88114e-18 0 0)
(-1.90993e-16 5.96309e-17 0)
(-5.94664e-17 0 0)
(-3.87947e-19 0 0)
(0 0 0)
(0 0 0)
(3.1651e-17 0 0)
(1.76677e-16 9.54094e-17 0)
(1.47658e-17 2.77555e-16 0)
(-1.32279e-16 9.54094e-17 0)
(-3.00588e-17 9.32411e-17 0)
(-5.13293e-17 0 0)
(-1.39222e-18 0 0)
(1.27368e-32 0 0)
(2.45722e-17 0 0)
(1.841e-16 0 0)
(-3.42405e-19 0 0)
(-2.24796e-16 0 0)
(-3.92591e-18 0 0)
(1.81113e-16 9.54094e-17 0)
(3.61762e-18 2.77555e-16 0)
(-1.59338e-16 9.54094e-17 0)
(-1.84515e-17 0 0)
(-4.12169e-20 0 0)
(-4.7694e-18 0 0)
(1.37679e-20 0 0)
(-5.50797e-18 2.1684e-18 0)
(2.17961e-18 0 0)
(3.94551e-17 0 0)
(1.97325e-19 8.23991e-17 0)
(-4.08835e-17 0 0)
(-5.08926e-17 6.72203e-17 0)
(4.69e-19 2.27682e-16 0)
(3.5804e-17 2.81892e-17 0)
(1.62061e-18 0 0)
(-1.52813e-16 0 0)
(-5.94357e-24 0 0)
(1.52813e-16 -9.10727e-17 0)
(1.30234e-19 0 0)
(4.49058e-18 9.54094e-17 0)
(2.82416e-17 3.44775e-16 0)
(-1.19167e-16 1.6263e-16 0)
(6.75089e-17 1.95156e-17 0)
(-1.0234e-16 0 0)
(-1.20111e-16 1.58293e-16 0)
(3.12179e-15 -1.51788e-17 0)
(6.71647e-11 7.15571e-17 0)
(2.28096e-07 2.01878e-15 0)
(7.35432e-05 -2.42442e-15 0)
(0.00332049 -5.48198e-15 0)
(0.0336304 2.4938e-15 0)
(0.127823 -2.52989e-15 0)
(0.282125 3.56663e-16 0)
(0.457984 1.17369e-15 0)
(0.678712 2.46287e-15 0)
(0.896332 4.68049e-15 0)
(0.960345 4.24657e-15 0)
(0.93571 2.80492e-15 0)
(0.939322 2.22196e-15 0)
(0.820008 8.90608e-17 0)
(0.458186 -1.10052e-15 0)
(0.0645191 1.72403e-15 0)
(0.00095625 -7.30471e-15 0)
(1.08092e-06 2.80807e-16 0)
(6.82181e-11 -1.14925e-16 0)
(1.68898e-15 3.03576e-17 0)
(-4.81244e-17 6.28835e-17 0)
(1.9184e-17 0 0)
(9.63632e-17 4.87889e-17 0)
(-3.60371e-18 2.81892e-17 0)
(-1.17909e-16 6.17993e-17 0)
(-1.57485e-17 0 0)
(5.85169e-20 0 0)
(6.40066e-17 0 0)
(2.06817e-16 5.42099e-17 0)
(4.30992e-17 0 0)
(-6.60797e-17 0 0)
(3.73161e-17 2.27682e-17 0)
(-7.53502e-17 1.35525e-16 0)
(-1.89693e-16 4.22837e-17 0)
(9.52851e-18 1.30104e-17 0)
(2.06622e-16 0 0)
(1.30505e-17 7.58939e-18 0)
(-1.53352e-16 1.70219e-16 0)
(1.09992e-17 7.58939e-18 0)
(2.03914e-16 0 0)
(1.61883e-17 0 0)
(-1.80184e-16 0 0)
(2.53124e-17 3.36101e-17 0)
(2.14775e-16 1.57209e-16 0)
(6.10034e-17 -4.33679e-18 0)
(-1.24642e-16 0 0)
(-1.43753e-17 0 0)
(-4.85244e-18 0 0)
(-6.5308e-17 -5.42099e-18 0)
(-4.12177e-17 -1.06251e-16 0)
(-1.42946e-16 -3.25259e-18 0)
(-3.32891e-17 8.45675e-17 0)
(5.23073e-17 0 0)
(2.09576e-16 0 0)
(1.9451e-17 -1.0842e-18 0)
(-1.44136e-16 1.61546e-16 0)
(-8.62611e-17 6.39677e-17 0)
(-1.1706e-17 0 0)
(0 6.50519e-17 0)
(0 0 0)
(9.81109e-17 0 0)
(3.51056e-16 0 0)
(4.957e-17 6.50519e-17 0)
(-2.87238e-16 1.60461e-16 0)
(-1.05693e-16 3.42607e-16 0)
(-1.63545e-16 1.0842e-16 0)
(-1.96996e-17 0 0)
(-2.94468e-31 0 0)
(6.10105e-17 0 0)
(2.89835e-16 0 0)
(-5.88659e-18 4.33679e-18 0)
(-3.39289e-16 0 0)
(-4.70593e-18 1.06251e-16 0)
(3.30679e-16 0 0)
(9.52418e-18 5.42099e-17 0)
(-2.7663e-16 0 0)
(-5.23516e-17 0 0)
(-8.99039e-19 8.45675e-17 0)
(-5.97165e-17 0 0)
(8.03304e-19 0 0)
(2.78304e-17 0 0)
(9.58695e-18 6.72203e-17 0)
(1.18351e-16 1.40946e-16 0)
(-1.86541e-18 3.27428e-16 0)
(-1.77805e-16 9.54094e-17 0)
(-1.73798e-16 0 0)
(-1.42884e-18 2.38524e-17 0)
(1.44994e-16 0 0)
(1.97705e-17 0 0)
(1.26853e-25 3.68627e-17 0)
(-8.20355e-23 2.51534e-16 0)
(6.74122e-26 9.54094e-17 0)
(6.1164e-19 5.85467e-17 0)
(2.03198e-17 2.40692e-16 0)
(6.71691e-17 2.05998e-16 0)
(-1.16793e-16 3.88143e-16 0)
(-6.38241e-18 2.01661e-16 0)
(-1.91559e-16 1.25767e-16 0)
(1.91656e-17 3.42607e-16 0)
(3.10712e-15 8.23991e-17 0)
(6.71647e-11 -6.50519e-17 0)
(2.28096e-07 9.194e-16 0)
(7.35432e-05 -1.73699e-15 0)
(0.00332049 -2.91386e-15 0)
(0.0336304 2.9323e-15 0)
(0.127823 8.52173e-16 0)
(0.282125 -5.3223e-16 0)
(0.457984 3.22475e-15 0)
(0.678712 3.10795e-15 0)
(0.896332 9.72221e-16 0)
(0.960345 2.228e-15 0)
(0.93571 1.89678e-15 0)
(0.939322 2.22605e-15 0)
(0.820008 3.06282e-16 0)
(0.458186 -2.34778e-15 0)
(0.0645191 -1.35842e-15 0)
(0.00095625 -3.4839e-15 0)
(1.08092e-06 4.67289e-16 0)
(6.82184e-11 -5.86551e-16 0)
(1.73498e-15 1.45283e-16 0)
(-3.79403e-17 2.0925e-16 0)
(6.60984e-17 1.07336e-16 0)
(1.69285e-16 2.0925e-16 0)
(-2.91446e-17 1.76724e-16 0)
(-2.28068e-16 2.20092e-16 0)
(-7.90383e-17 6.72203e-17 0)
(1.98761e-18 0 0)
(7.33509e-17 6.61361e-17 0)
(1.8156e-16 2.10334e-16 0)
(2.87168e-17 5.96309e-17 0)
(-1.0453e-16 4.77047e-17 0)
(9.61665e-18 4.77047e-17 0)
(3.46564e-18 -5.20415e-17 0)
(-9.19605e-17 5.52941e-17 0)
(1.72958e-17 1.64798e-16 0)
(1.22093e-16 6.39677e-17 0)
(2.39937e-17 0 0)
(-1.19234e-16 6.93887e-17 0)
(-6.64882e-17 5.52941e-17 0)
(7.6404e-17 3.79469e-17 0)
(5.98575e-17 -2.60208e-17 0)
(-4.32322e-17 7.69781e-17 0)
(5.96711e-17 1.61546e-16 0)
(1.48917e-16 3.25259e-17 0)
(3.36378e-18 -1.17093e-16 0)
(-1.26836e-16 -5.63783e-17 0)
(-2.46333e-17 5.20415e-17 0)
(-1.83796e-17 -4.98731e-17 0)
(-1.20558e-16 5.42099e-17 0)
(-1.78255e-17 -2.1684e-18 0)
(-1.97749e-17 1.22514e-16 0)
(-8.20834e-17 2.36355e-16 0)
(-4.14195e-17 8.13149e-17 0)
(1.39992e-16 2.27682e-17 0)
(1.25474e-16 -1.0842e-16 0)
(-6.42808e-17 1.40946e-17 0)
(-1.66369e-16 2.07082e-16 0)
(-6.48532e-17 1.07336e-16 0)
(-4.33679e-17 2.07082e-16 0)
(-2.1684e-18 -2.1684e-18 0)
(6.69179e-17 -2.1684e-18 0)
(2.57746e-16 -2.1684e-18 0)
(9.87004e-17 3.68627e-17 0)
(-8.63514e-17 2.8406e-16 0)
(-1.4828e-16 4.11995e-17 0)
(-2.92495e-16 -2.1684e-18 0)
(-6.06873e-17 -2.1684e-18 0)
(-6.99307e-27 0 0)
(2.705e-18 0 0)
(1.1088e-16 -4.33679e-18 0)
(1.40797e-17 -1.73472e-16 0)
(-2.14567e-17 5.20415e-17 0)
(1.07867e-17 3.55617e-16 0)
(1.53445e-16 1.53956e-16 0)
(1.71068e-18 0 0)
(-9.48317e-17 -2.1684e-18 0)
(3.51335e-17 9.10727e-17 0)
(-5.07554e-18 3.25259e-16 0)
(-1.6032e-16 1.45283e-16 0)
(1.00751e-17 0 0)
(1.39914e-16 9.54094e-17 0)
(3.72822e-17 2.99239e-16 0)
(2.20101e-16 1.14925e-16 0)
(-2.81957e-17 3.03576e-17 0)
(-3.51416e-16 -2.1684e-18 0)
(-3.43283e-16 -4.33679e-18 0)
(4.24503e-20 0 0)
(2.89138e-16 -2.1684e-18 0)
(5.94802e-17 0 0)
(2.75189e-25 0 0)
(-8.61364e-22 3.68627e-17 0)
(6.55284e-25 0 0)
(2.43087e-18 -2.1684e-18 0)
(4.98859e-17 2.60208e-17 0)
(2.68106e-16 0 0)
(1.66376e-18 1.14925e-16 0)
(-1.89908e-16 1.95156e-17 0)
(-1.782e-16 0 0)
(1.90021e-18 9.10727e-17 0)
(3.03805e-15 -6.72203e-17 0)
(6.71648e-11 -1.97324e-16 0)
(2.28096e-07 1.47234e-15 0)
(7.35432e-05 -2.42876e-16 0)
(0.00332049 1.09379e-15 0)
(0.0336304 2.63327e-16 0)
(0.127823 1.43078e-15 0)
(0.282125 -6.66325e-16 0)
(0.457984 6.12504e-17 0)
(0.678712 -1.93133e-15 0)
(0.896332 -1.10958e-15 0)
(0.960345 1.88202e-16 0)
(0.93571 2.19611e-15 0)
(0.939322 1.43233e-15 0)
(0.820008 8.86264e-16 0)
(0.458186 -1.85917e-15 0)
(0.0645191 -1.90117e-15 0)
(0.00095625 8.2656e-16 0)
(1.08092e-06 -4.11995e-16 0)
(6.82197e-11 9.21569e-17 0)
(1.724e-15 2.92734e-17 0)
(-1.1346e-16 1.07336e-16 0)
(8.46214e-19 2.24429e-16 0)
(1.07754e-16 1.46367e-16 0)
(4.20603e-18 4.33679e-17 0)
(-1.16572e-16 1.63714e-16 0)
(-9.9896e-17 2.17924e-16 0)
(9.4445e-18 1.11672e-16 0)
(1.18312e-16 2.12503e-16 0)
(6.92279e-17 2.08166e-16 0)
(-5.7553e-17 8.56517e-17 0)
(-1.59032e-16 1.87566e-16 0)
(-2.51739e-17 1.76724e-16 0)
(1.13618e-17 8.02307e-17 0)
(5.13133e-17 1.91903e-16 0)
(1.1998e-18 2.21176e-16 0)
(1.51368e-17 2.20092e-16 0)
(-1.44582e-17 8.56517e-17 0)
(-1.49053e-16 7.04729e-17 0)
(-1.97263e-17 1.98408e-16 0)
(3.59551e-17 2.12503e-16 0)
(1.56069e-16 9.54094e-17 0)
(1.084e-16 2.27682e-16 0)
(-6.14915e-17 2.21176e-16 0)
(-9.72806e-17 2.60208e-17 0)
(-3.00747e-18 -8.56517e-17 0)
(5.33901e-17 2.92734e-17 0)
(-3.74383e-17 1.10588e-16 0)
(-3.76577e-17 6.50519e-18 0)
(-3.20878e-18 1.0842e-16 0)
(3.8154e-18 5.42099e-18 0)
(2.55365e-17 7.15571e-17 0)
(-1.2982e-16 1.69135e-16 0)
(-1.58021e-16 2.46113e-16 0)
(-1.32744e-17 1.77809e-16 0)
(-7.27329e-18 3.68627e-17 0)
(9.74274e-17 0 0)
(-2.00529e-17 1.23599e-16 0)
(-9.31421e-17 1.86482e-16 0)
(-2.24429e-16 1.30104e-16 0)
(-2.1684e-18 2.1684e-18 0)
(1.53028e-16 2.1684e-18 0)
(4.36415e-16 2.1684e-18 0)
(1.34135e-16 1.53956e-16 0)
(-2.87491e-16 -3.25259e-17 0)
(-3.24552e-16 -3.12249e-16 0)
(-8.20055e-17 -7.37255e-17 0)
(5.10221e-21 2.1684e-18 0)
(-5.26292e-23 0 0)
(3.52816e-17 -2.1684e-18 0)
(2.1984e-16 -6.50519e-17 0)
(5.07542e-17 1.14925e-16 0)
(2.33354e-16 0 0)
(4.93777e-17 3.46943e-17 0)
(1.54533e-16 -4.98731e-17 0)
(2.34004e-18 9.10727e-17 0)
(-1.84069e-16 2.1684e-18 0)
(1.86387e-17 2.1684e-18 0)
(-3.0736e-17 2.1684e-18 0)
(-2.49278e-16 0 0)
(4.64564e-17 0 0)
(2.35128e-16 2.53702e-16 0)
(-5.32743e-18 3.46943e-17 0)
(-5.16279e-17 -6.93887e-17 0)
(5.33932e-22 -3.23091e-16 0)
(-1.29222e-16 -1.25767e-16 0)
(-1.35783e-16 -1.01915e-16 0)
(5.88617e-17 0 0)
(5.98104e-17 2.1684e-18 0)
(7.42646e-26 0 0)
(-2.39843e-23 0 0)
(-4.3282e-20 0 0)
(6.06545e-22 0 0)
(2.18177e-17 2.1684e-18 0)
(1.51217e-16 0 0)
(7.70679e-17 9.32411e-17 0)
(-1.05785e-16 -9.32411e-17 0)
(-1.04899e-16 2.1684e-18 0)
(-2.86122e-16 0 0)
(-2.75565e-17 0 0)
(2.90168e-15 -1.0842e-17 0)
(6.71646e-11 -5.70288e-16 0)
(2.28096e-07 4.69675e-15 0)
(7.35432e-05 -2.9492e-15 0)
(0.00332049 7.01502e-15 0)
(0.0336304 -5.11926e-15 0)
(0.127823 -5.47134e-16 0)
(0.282125 6.48353e-16 0)
(0.457984 -2.33414e-15 0)
(0.678712 -1.34792e-15 0)
(0.896332 -1.85824e-15 0)
(0.960345 -2.46856e-15 0)
(0.93571 -8.38975e-16 0)
(0.939322 -2.35113e-15 0)
(0.820008 -3.6276e-16 0)
(0.458186 2.54142e-16 0)
(0.0645191 -1.85894e-15 0)
(0.00095625 5.11536e-15 0)
(1.08092e-06 -1.58184e-15 0)
(6.82182e-11 6.38593e-16 0)
(1.76548e-15 1.30104e-17 0)
(2.3224e-17 3.25259e-18 0)
(3.95493e-17 8.34833e-17 0)
(-5.92232e-17 -2.05998e-17 0)
(-1.01684e-25 0 0)
(4.94555e-17 -2.38524e-17 0)
(-5.32263e-17 7.91465e-17 0)
(2.0998e-17 1.25767e-16 0)
(1.43797e-16 3.46943e-17 0)
(2.76923e-17 5.20415e-17 0)
(2.32162e-19 -1.73472e-17 0)
(-4.68015e-17 8.45675e-17 0)
(-2.31281e-18 1.95156e-17 0)
(3.79578e-17 1.20346e-16 0)
(-3.25413e-17 1.25767e-16 0)
(7.81598e-18 2.92734e-17 0)
(7.21839e-17 1.31188e-16 0)
(6.03614e-18 3.03576e-17 0)
(-3.06636e-17 8.23991e-17 0)
(2.60549e-17 2.1684e-16 0)
(-5.06593e-19 2.40692e-16 0)
(4.30209e-17 2.04913e-16 0)
(-8.5677e-19 8.56517e-17 0)
(-2.31694e-17 7.69781e-17 0)
(-1.37118e-16 1.34441e-16 0)
(-1.95764e-17 8.56517e-17 0)
(3.60562e-17 1.76724e-16 0)
(-6.64159e-17 7.37255e-17 0)
(-1.11342e-16 1.22514e-16 0)
(-6.73759e-17 -3.36101e-17 0)
(9.98386e-18 -9.54094e-17 0)
(1.57468e-16 -7.15571e-17 0)
(7.0608e-17 -3.46943e-17 0)
(5.41946e-17 1.60461e-16 0)
(1.47433e-17 2.39608e-16 0)
(-3.06026e-17 2.26597e-16 0)
(-5.42027e-17 6.72203e-17 0)
(-6.90985e-17 -1.12757e-16 0)
(-1.74211e-16 -8.67359e-18 0)
(-2.82976e-16 -1.12757e-16 0)
(0 0 0)
(7.12228e-17 0 0)
(3.06631e-16 0 0)
(2.10779e-17 -1.53956e-16 0)
(-3.38643e-16 -3.88143e-16 0)
(-8.21896e-17 -1.30104e-16 0)
(-5.12807e-19 0 0)
(2.90165e-20 0 0)
(-3.25258e-20 0 0)
(1.04724e-16 2.1684e-18 0)
(3.48045e-16 1.27935e-16 0)
(1.12679e-16 2.7105e-16 0)
(-1.36003e-16 1.51788e-17 0)
(4.44437e-17 -2.34187e-16 0)
(2.26867e-16 -6.50519e-17 0)
(-4.09139e-18 -9.32411e-17 0)
(-3.07052e-16 0 0)
(-4.39073e-17 -8.23991e-17 0)
(-2.38315e-20 -3.49112e-16 0)
(-6.2752e-17 -1.23599e-16 0)
(1.56563e-16 0 0)
(6.74726e-18 1.73472e-17 0)
(-2.30612e-16 -2.23345e-16 0)
(-4.8882e-17 -3.90311e-17 0)
(2.76841e-21 -8.23991e-17 0)
(-1.13614e-25 0 0)
(-3.64016e-24 1.06251e-16 0)
(2.5614e-24 0 0)
(3.39542e-21 0 0)
(-2.26784e-25 0 0)
(-1.80953e-20 0 0)
(-3.99471e-18 0 0)
(6.32669e-20 0 0)
(6.74106e-17 0 0)
(3.03769e-16 0 0)
(-1.06947e-18 -5.20415e-17 0)
(-2.74153e-16 0 0)
(-7.58353e-17 0 0)
(-5.86135e-17 0 0)
(2.06653e-18 0 0)
(2.94655e-15 7.37255e-17 0)
(6.71629e-11 -1.12106e-15 0)
(2.28096e-07 2.36789e-15 0)
(7.35432e-05 -3.93372e-15 0)
(0.00332049 9.41352e-15 0)
(0.0336304 -7.82394e-15 0)
(0.127823 -2.08201e-16 0)
(0.282125 1.57042e-15 0)
(0.457984 -9.41931e-16 0)
(0.678712 3.152e-16 0)
(0.896332 -1.97728e-15 0)
(0.960345 -3.14389e-15 0)
(0.93571 -3.16208e-15 0)
(0.939322 -2.91015e-15 0)
(0.820008 -7.39096e-16 0)
(0.458186 1.12927e-15 0)
(0.0645191 -4.50987e-15 0)
(0.00095625 4.7102e-15 0)
(1.08092e-06 -2.61942e-15 0)
(6.82184e-11 2.49366e-17 0)
(1.75268e-15 1.19262e-17 0)
(2.05327e-17 0 0)
(-9.44543e-17 -1.73472e-17 0)
(-4.13952e-18 -1.19262e-16 0)
(4.52968e-24 -1.6263e-17 0)
(4.68872e-18 -1.19262e-16 0)
(3.80171e-17 -1.73472e-17 0)
(-6.40067e-17 -9.75778e-18 0)
(3.68495e-17 -1.12757e-16 0)
(1.05724e-16 -1.19262e-17 0)
(2.17166e-18 0 0)
(-1.02467e-16 -9.75778e-18 0)
(-1.35728e-17 -1.11672e-16 0)
(5.22498e-17 -8.67359e-18 0)
(-5.15189e-17 -2.92734e-17 0)
(4.19677e-17 -1.31188e-16 0)
(1.44248e-16 -3.03576e-17 0)
(2.89306e-17 0 0)
(1.92546e-18 -3.90311e-17 0)
(6.5772e-17 6.39677e-17 0)
(-2.03835e-18 8.34833e-17 0)
(2.1955e-21 6.28835e-17 0)
(-8.93241e-18 0 0)
(-7.55204e-17 0 0)
(-1.99336e-17 1.40946e-17 0)
(9.39787e-17 1.45283e-16 0)
(1.13303e-18 4.44521e-17 0)
(-8.8714e-17 0 0)
(-2.3514e-16 5.52941e-17 0)
(-1.75301e-16 -5.42099e-17 0)
(-5.54165e-17 6.50519e-18 0)
(5.49948e-17 -1.68051e-16 0)
(2.32617e-16 -1.91903e-16 0)
(2.39506e-16 -2.7105e-17 0)
(4.17416e-17 8.45675e-17 0)
(-8.68906e-17 6.39677e-17 0)
(-2.03215e-16 -7.58939e-17 0)
(-1.63675e-16 -2.4286e-16 0)
(-6.00927e-17 -1.72388e-16 0)
(-1.24683e-16 -2.38524e-16 0)
(0 0 0)
(7.92948e-19 0 0)
(4.97113e-17 -1.2143e-16 0)
(-1.82592e-17 -3.77301e-16 0)
(-8.18214e-17 -1.30104e-16 0)
(-2.31428e-19 0 0)
(1.40307e-18 0 0)
(1.4985e-18 0 0)
(-2.42278e-18 0 0)
(1.04755e-16 0 0)
(3.59364e-16 0 0)
(-2.50747e-18 5.85467e-17 0)
(-3.62507e-16 0 0)
(-9.39407e-17 -5.20415e-17 0)
(4.95837e-17 0 0)
(9.34573e-18 -9.32411e-17 0)
(-1.23954e-16 0 0)
(-1.85437e-18 0 0)
(-1.84645e-19 -9.54094e-17 0)
(-2.2284e-19 0 0)
(3.24443e-17 0 0)
(-1.74909e-18 -9.32411e-17 0)
(-6.72056e-17 -4.55363e-17 0)
(-3.04326e-19 0 0)
(2.46591e-20 0 0)
(-3.76712e-22 0 0)
(-2.93688e-23 0 0)
(3.08702e-21 0 0)
(-1.40768e-20 0 0)
(-1.96662e-22 0 0)
(-1.37319e-18 0 0)
(-5.5272e-17 0 0)
(1.01474e-18 -7.37255e-17 0)
(6.53457e-17 0 0)
(9.46998e-17 -9.32411e-17 0)
(-4.48613e-18 -3.25259e-16 0)
(-6.78444e-17 -9.32411e-17 0)
(-1.47871e-19 0 0)
(-2.03375e-18 0 0)
(5.22829e-18 0 0)
(2.89264e-15 0 0)
(6.71621e-11 -8.89043e-17 0)
(2.28096e-07 -5.20415e-16 0)
(7.35432e-05 -8.69581e-16 0)
(0.00332049 5.65376e-15 0)
(0.0336304 -1.36685e-15 0)
(0.127823 2.26601e-15 0)
(0.282125 1.07828e-15 0)
(0.457984 -2.79765e-16 0)
(0.678712 -1.08558e-15 0)
(0.896332 9.29909e-16 0)
(0.960345 7.94197e-16 0)
(0.93571 -1.11486e-15 0)
(0.939322 -5.45823e-16 0)
(0.820008 8.63999e-16 0)
(0.458186 1.90606e-16 0)
(0.0645191 -1.00105e-15 0)
(0.00095625 2.24569e-15 0)
(1.08092e-06 -2.6346e-16 0)
(6.82184e-11 -2.34187e-16 0)
(1.77545e-15 1.0842e-18 0)
(6.4714e-17 0 0)
(-6.97184e-17 0 0)
(-1.34265e-17 -1.73472e-17 0)
(-1.68764e-22 -3.57785e-17 0)
(1.56126e-17 -1.73472e-17 0)
(7.12478e-18 0 0)
(-9.182e-17 -5.20415e-17 0)
(8.71051e-17 -1.0842e-17 0)
(1.99063e-16 0 0)
(5.57981e-18 5.96309e-17 0)
(-1.83672e-16 0 0)
(-2.71147e-17 -9.75778e-18 0)
(6.17006e-17 -4.01153e-17 0)
(-4.15012e-17 0 0)
(1.16203e-17 -2.27682e-17 0)
(1.21869e-16 0 0)
(-1.56871e-17 0 0)
(2.01174e-17 0 0)
(1.49499e-16 0 0)
(2.69516e-17 0 0)
(-6.30462e-20 0 0)
(-3.02111e-17 0 0)
(-1.56946e-16 0 0)
(2.28487e-18 0 0)
(1.75669e-16 3.03576e-17 0)
(1.52194e-17 0 0)
(-8.08092e-17 0 0)
(-2.43452e-16 0 0)
(-1.12335e-16 0 0)
(-4.18092e-17 -1.19262e-17 0)
(-2.80651e-17 -6.39677e-17 0)
(1.58004e-16 -7.58939e-17 0)
(2.66672e-16 0 0)
(4.52216e-17 0 0)
(-2.15538e-16 0 0)
(-2.71974e-16 3.57785e-17 0)
(-1.23538e-16 -7.37255e-17 0)
(4.89636e-18 -4.01153e-17 0)
(0 -8.56517e-17 0)
(0 9.10727e-17 0)
(9.79719e-18 0 0)
(-5.17217e-18 0 0)
(-2.98746e-17 -1.49619e-16 0)
(-6.15392e-18 0 0)
(6.8534e-19 0 0)
(3.1605e-17 0 0)
(1.57576e-17 5.63783e-17 0)
(-3.34341e-17 0 0)
(1.04558e-16 -2.1684e-18 0)
(3.78687e-16 0 0)
(7.70545e-18 0 0)
(-3.58387e-16 0 0)
(-6.84574e-17 -3.90311e-17 0)
(1.20206e-16 0 0)
(1.4653e-17 9.32411e-17 0)
(-1.44445e-16 2.81892e-17 0)
(-3.13587e-17 0 0)
(-2.9932e-18 0 0)
(5.76987e-19 0 0)
(1.16712e-16 0 0)
(-1.62717e-18 9.32411e-17 0)
(-1.25097e-16 0 0)
(-6.12235e-18 0 0)
(1.77619e-19 0 0)
(-1.42708e-19 0 0)
(-2.12801e-20 0 0)
(2.73001e-19 0 0)
(-1.40327e-18 0 0)
(-3.1898e-20 0 0)
(-1.66637e-17 0 0)
(-1.61073e-16 -1.30104e-16 0)
(4.28638e-18 -3.14417e-16 0)
(1.75559e-16 -1.30104e-16 0)
(1.69358e-17 0 0)
(-1.35696e-17 -8.45675e-17 0)
(6.00495e-18 0 0)
(-4.82076e-18 0 0)
(7.39772e-18 0 0)
(6.4589e-17 0 0)
(2.87756e-15 1.01915e-16 0)
(6.71624e-11 -3.57785e-16 0)
(2.28096e-07 1.49619e-16 0)
(7.35432e-05 1.79988e-16 0)
(0.00332049 -2.23541e-15 0)
(0.0336304 1.43156e-15 0)
(0.127823 2.00333e-15 0)
(0.282125 -5.66791e-16 0)
(0.457984 9.71729e-16 0)
(0.678712 1.20207e-15 0)
(0.896332 1.53964e-15 0)
(0.960345 1.8332e-15 0)
(0.93571 2.93465e-16 0)
(0.939322 2.81554e-16 0)
(0.820008 9.74239e-16 0)
(0.458186 -9.52275e-16 0)
(0.0645191 5.56138e-16 0)
(0.00095625 -5.69818e-16 0)
(1.08092e-06 -3.06828e-16 0)
(6.82189e-11 -3.14417e-17 0)
(1.74333e-15 -3.46943e-17 0)
(-1.88835e-17 0 0)
(-1.40086e-16 -6.39677e-17 0)
(-7.01217e-17 -4.01153e-17 0)
(-1.94304e-21 -1.53956e-16 0)
(7.30428e-17 -4.22837e-17 0)
(2.99884e-17 0 0)
(-1.09826e-16 5.20415e-17 0)
(7.08396e-17 0 0)
(2.01585e-16 -5.63783e-17 0)
(2.15568e-18 -5.96309e-17 0)
(-1.9163e-16 -5.85467e-17 0)
(-3.65149e-17 -2.60208e-17 0)
(7.40893e-17 -1.66967e-16 0)
(-2.99226e-17 -6.50519e-17 0)
(5.68505e-17 0 0)
(1.92902e-16 -6.93887e-17 0)
(4.90994e-17 -2.49366e-17 0)
(-1.472e-18 1.05167e-16 0)
(-4.54427e-18 -1.0842e-18 0)
(-3.72495e-19 -8.34833e-17 0)
(1.09593e-18 -5.96309e-17 0)
(3.00057e-17 -5.09573e-17 0)
(-2.10605e-17 0 0)
(7.06959e-18 5.42099e-17 0)
(7.10096e-17 0 0)
(9.61916e-19 0 0)
(-7.95917e-17 0 0)
(-2.3388e-16 0 0)
(-2.31264e-16 0 0)
(-1.1179e-16 -1.20346e-16 0)
(4.60536e-17 -1.0842e-18 0)
(2.34604e-16 0 0)
(2.29776e-16 0 0)
(6.88611e-17 -6.61361e-17 0)
(-6.59308e-17 2.7105e-17 0)
(-2.35108e-16 1.9624e-16 0)
(-2.31039e-16 6.93887e-17 0)
(-6.95664e-17 4.55363e-17 0)
(-1.73472e-17 4.11995e-17 0)
(1.82145e-16 3.14417e-16 0)
(3.06012e-17 1.0842e-16 0)
(-3.06612e-17 1.06251e-16 0)
(-1.61516e-16 -1.04083e-16 0)
(-3.09296e-17 2.1684e-18 0)
(1.93984e-17 0 0)
(1.69459e-16 1.01915e-16 0)
(2.93452e-17 2.86228e-16 0)
(-1.29403e-16 1.01915e-16 0)
(1.31068e-16 9.32411e-17 0)
(2.46741e-16 1.19262e-16 0)
(1.30901e-17 -1.19262e-16 0)
(-2.00888e-16 -3.68627e-17 0)
(-5.64685e-18 -2.21176e-16 0)
(1.86301e-16 -2.81892e-17 0)
(3.70084e-17 -1.30104e-17 0)
(-2.08438e-16 2.34187e-16 0)
(-1.77535e-16 2.1684e-17 0)
(-3.64481e-17 0 0)
(1.31944e-17 0 0)
(2.2762e-16 0 0)
(6.5231e-18 -4.33679e-18 0)
(-2.28984e-16 0 0)
(-2.43716e-17 0 0)
(9.36557e-19 0 0)
(-7.75223e-18 0 0)
(-2.10463e-18 0 0)
(2.68455e-18 0 0)
(-2.53322e-17 0 0)
(-1.21988e-18 0 0)
(-4.97018e-17 0 0)
(-2.69263e-16 0 0)
(2.2004e-17 1.51788e-17 0)
(3.02295e-16 0 0)
(4.68321e-17 0 0)
(-5.76726e-17 0 0)
(7.0127e-17 0 0)
(-3.27766e-17 0 0)
(5.56271e-17 -6.50519e-18 0)
(1.70999e-16 1.04083e-16 0)
(3.00786e-15 3.25259e-16 0)
(6.71612e-11 -2.25513e-16 0)
(2.28096e-07 1.24249e-15 0)
(7.35432e-05 5.42133e-16 0)
(0.00332049 -9.8158e-15 0)
(0.0336304 3.30944e-15 0)
(0.127823 1.26858e-15 0)
(0.282125 -1.46536e-15 0)
(0.457984 1.35082e-15 0)
(0.678712 3.32918e-15 0)
(0.896332 1.06537e-15 0)
(0.960345 1.34147e-15 0)
(0.93571 1.02068e-15 0)
(0.939322 1.26858e-15 0)
(0.820008 -3.17687e-16 0)
(0.458186 -4.54505e-15 0)
(0.0645191 2.45216e-15 0)
(0.00095625 -2.63351e-15 0)
(1.08092e-06 -7.55685e-16 0)
(6.82183e-11 3.00323e-16 0)
(1.79115e-15 -1.87566e-16 0)
(6.70579e-17 -6.39677e-17 0)
(-6.68335e-17 -1.74556e-16 0)
(-1.61289e-16 -6.72203e-17 0)
(-1.63934e-20 -5.20415e-17 0)
(1.64358e-16 0 0)
(9.65235e-17 -5.85467e-17 0)
(-1.22489e-17 4.87889e-17 0)
(-4.10504e-17 -4.77047e-17 0)
(7.73065e-17 -1.79977e-16 0)
(-3.40138e-19 -7.91465e-17 0)
(-6.86083e-17 -1.78893e-16 0)
(-4.5411e-17 -4.77047e-17 0)
(8.85678e-17 -2.60208e-17 0)
(-1.33028e-17 0 0)
(-8.49067e-19 -6.28835e-17 0)
(1.29503e-16 -1.91903e-16 0)
(1.1143e-16 -1.60461e-16 0)
(-2.58917e-18 -3.46943e-17 0)
(-8.18792e-17 -1.56125e-16 0)
(-3.05363e-18 -2.40692e-16 0)
(6.32423e-18 -2.03829e-16 0)
(7.76589e-17 -1.97324e-16 0)
(2.55163e-17 -7.69781e-17 0)
(1.78658e-17 -5.42099e-17 0)
(6.71711e-17 0 0)
(-4.35871e-18 0 0)
(-2.41326e-17 -4.98731e-17 0)
(-1.93268e-16 0 0)
(-2.62996e-16 1.33356e-16 0)
(-9.62802e-17 3.79469e-17 0)
(2.46701e-17 0 0)
(1.77979e-16 8.78201e-17 0)
(1.79915e-16 -8.78201e-17 0)
(5.1282e-17 -2.11419e-16 0)
(3.77654e-17 -4.66205e-17 0)
(-1.68592e-16 3.79469e-17 0)
(-1.81854e-16 2.03829e-16 0)
(-8.04078e-17 2.05998e-16 0)
(-1.70219e-16 1.92987e-16 0)
(3.64291e-16 1.34441e-16 0)
(7.57733e-17 9.97462e-17 0)
(-8.4753e-17 0 0)
(-3.15755e-16 1.0842e-16 0)
(-5.84119e-17 -2.60208e-17 0)
(1.26849e-16 8.67359e-17 0)
(3.81691e-16 1.58293e-16 0)
(4.23777e-17 1.01915e-16 0)
(-3.1391e-16 1.60461e-16 0)
(2.36037e-16 3.42607e-16 0)
(-6.15737e-17 3.90311e-17 0)
(-2.05064e-16 -2.10334e-16 0)
(-1.12265e-16 2.1684e-18 0)
(-1.0271e-16 2.81892e-17 0)
(1.73001e-16 -2.1684e-18 0)
(2.69507e-16 -2.47197e-16 0)
(-2.03645e-17 4.77047e-17 0)
(-3.48578e-16 1.6263e-16 0)
(-1.09152e-16 -2.1684e-18 0)
(7.27438e-17 1.01915e-16 0)
(-1.05649e-16 -4.33679e-18 0)
(-6.61324e-17 -2.47197e-16 0)
(7.72824e-17 -1.95156e-17 0)
(1.59504e-16 9.75778e-17 0)
(5.62246e-18 1.14925e-16 0)
(-8.50944e-17 2.38524e-17 0)
(-3.8183e-17 0 0)
(5.08268e-18 0 0)
(-1.24969e-16 2.60208e-17 0)
(-1.43741e-17 -4.33679e-18 0)
(9.8234e-17 0 0)
(-8.24532e-17 1.69135e-16 0)
(7.41261e-17 3.66459e-16 0)
(2.74998e-17 9.97462e-17 0)
(-1.06097e-16 0 0)
(-6.77339e-17 -1.0842e-16 0)
(1.19236e-16 0 0)
(-6.52601e-17 -8.67359e-18 0)
(7.98721e-17 -1.92987e-16 0)
(2.68794e-16 -1.0842e-17 0)
(3.25407e-15 2.1684e-17 0)
(6.71613e-11 -4.33679e-18 0)
(2.28096e-07 -3.90311e-17 0)
(7.35432e-05 5.13942e-16 0)
(0.00332049 -8.89598e-15 0)
(0.0336304 6.32878e-15 0)
(0.127823 -1.49614e-15 0)
(0.282125 4.05048e-16 0)
(0.457984 -7.94599e-17 0)
(0.678712 -7.34162e-17 0)
(0.896332 2.15726e-15 0)
(0.960345 1.7812e-15 0)
(0.93571 1.95227e-15 0)
(0.939322 2.07913e-15 0)
(0.820008 1.49014e-15 0)
(0.458186 -3.37343e-15 0)
(0.0645191 3.80337e-15 0)
(0.00095625 -3.6659e-15 0)
(1.08092e-06 -8.34832e-17 0)
(6.8218e-11 1.0083e-16 0)
(1.90763e-15 1.73472e-17 0)
(-6.27272e-17 0 0)
(-1.53806e-16 -9.54094e-17 0)
(-5.174e-17 0 0)
(-8.9407e-19 -6.50519e-17 0)
(4.02557e-17 -4.87889e-17 0)
(1.5287e-16 -1.60461e-16 0)
(6.38686e-17 -1.04083e-16 0)
(-8.10387e-17 4.87889e-17 0)
(2.25094e-17 -5.31257e-17 0)
(-1.01255e-18 -2.1684e-18 0)
(-3.60099e-17 -1.02999e-16 0)
(6.78336e-17 -2.1684e-18 0)
(3.13026e-17 3.36101e-17 0)
(-7.52284e-17 -6.93887e-17 0)
(-1.05229e-16 3.25259e-17 0)
(3.93559e-17 -8.02307e-17 0)
(1.61227e-16 -5.20415e-17 0)
(-3.94308e-18 0 0)
(-1.52177e-16 -1.35525e-16 0)
(-1.28579e-17 -1.10588e-16 0)
(2.89725e-17 -6.07151e-17 0)
(1.51263e-16 -9.21569e-17 0)
(6.64045e-17 -1.92987e-16 0)
(8.3815e-17 -5.31257e-17 0)
(1.08037e-16 0 0)
(-1.89948e-17 -6.28835e-17 0)
(6.3851e-18 -1.92987e-16 0)
(8.01032e-18 -3.25259e-18 0)
(-1.71272e-16 1.6263e-16 0)
(-1.5447e-16 2.17924e-16 0)
(-4.39056e-18 6.83045e-17 0)
(6.71336e-17 0 0)
(3.639e-17 -8.34833e-17 0)
(1.55867e-16 -1.68051e-16 0)
(1.62919e-16 -6.61361e-17 0)
(2.46863e-18 -6.28835e-17 0)
(-8.50588e-17 7.80623e-17 0)
(-1.3561e-16 7.26413e-17 0)
(-2.75386e-16 8.99885e-17 0)
(2.66713e-16 6.07151e-17 0)
(5.14823e-17 2.81892e-16 0)
(-1.73387e-16 1.43114e-16 0)
(-1.21858e-16 3.23091e-16 0)
(5.34001e-17 1.60461e-16 0)
(2.44639e-16 3.46943e-16 0)
(1.99035e-16 3.40438e-16 0)
(-9.26695e-18 1.23599e-16 0)
(-1.27821e-16 1.97324e-16 0)
(-9.43106e-17 1.0842e-17 0)
(-2.09145e-16 -2.60208e-16 0)
(5.26625e-18 -4.33679e-17 0)
(-1.68168e-16 1.95156e-16 0)
(-4.28684e-17 3.42607e-16 0)
(1.81845e-16 1.19262e-16 0)
(8.75257e-17 -6.72203e-17 0)
(4.44563e-17 1.01915e-16 0)
(-2.1455e-16 3.57785e-16 0)
(-3.03281e-17 1.77809e-16 0)
(1.09486e-16 3.59954e-16 0)
(-1.23559e-16 2.05998e-16 0)
(-1.21285e-16 6.28835e-17 0)
(1.01795e-16 1.06251e-16 0)
(3.41334e-16 3.77301e-16 0)
(2.35191e-17 3.77301e-16 0)
(-2.13483e-16 2.27682e-16 0)
(-1.69469e-16 2.81892e-17 0)
(-3.80219e-18 6.50519e-17 0)
(-1.88086e-16 2.45029e-16 0)
(-8.3305e-17 4.33679e-18 0)
(1.74692e-16 0 0)
(6.70002e-17 0 0)
(1.62377e-16 1.40946e-16 0)
(-4.01718e-17 3.44775e-16 0)
(-2.30711e-16 1.60461e-16 0)
(4.30935e-18 1.06251e-16 0)
(9.75643e-17 2.1684e-18 0)
(-8.74498e-17 1.84314e-16 0)
(-6.20047e-17 -4.33679e-17 0)
(2.23569e-16 -1.34441e-16 0)
(3.02478e-15 -3.10081e-16 0)
(6.71612e-11 1.45283e-16 0)
(2.28096e-07 -2.55654e-15 0)
(7.35432e-05 -5.11773e-16 0)
(0.00332049 -2.28977e-15 0)
(0.0336304 1.76965e-15 0)
(0.127823 -3.92435e-15 0)
(0.282125 1.16814e-15 0)
(0.457984 3.93989e-16 0)
(0.678712 2.50594e-16 0)
(0.896332 1.59111e-15 0)
(0.960345 6.76041e-16 0)
(0.93571 3.53253e-16 0)
(0.939322 -7.52327e-16 0)
(0.820008 -1.19472e-16 0)
(0.458186 -1.10355e-15 0)
(0.0645191 -3.23384e-16 0)
(0.00095625 -1.82862e-15 0)
(1.08092e-06 1.04625e-15 0)
(6.8218e-11 -3.16586e-16 0)
(1.72882e-15 2.11419e-16 0)
(-4.1468e-17 7.58939e-17 0)
(-8.90917e-17 9.54094e-17 0)
(-1.00145e-16 -2.38524e-17 0)
(-4.4214e-18 -1.78893e-16 0)
(7.35981e-17 -5.20415e-17 0)
(4.81838e-17 6.50519e-18 0)
(1.49111e-16 -9.43252e-17 0)
(2.84694e-17 0 0)
(-1.2977e-16 1.09504e-16 0)
(-2.70382e-17 8.67359e-18 0)
(-8.13905e-18 1.04083e-16 0)
(9.37582e-17 3.25259e-18 0)
(2.16439e-17 -6.72203e-17 0)
(-9.25547e-17 2.7105e-17 0)
(-6.31875e-18 1.36609e-16 0)
(1.21242e-16 8.02307e-17 0)
(7.90191e-17 0 0)
(-6.8651e-17 -8.56517e-17 0)
(-7.5255e-17 4.44521e-17 0)
(5.97966e-17 1.06251e-16 0)
(-3.49027e-30 4.33679e-18 0)
(3.50244e-18 6.39677e-17 0)
(1.16406e-16 -4.87889e-17 0)
(1.91801e-16 0 0)
(1.97035e-17 0 0)
(-1.50185e-16 -1.22514e-16 0)
(1.65122e-17 -1.51788e-17 0)
(1.56396e-16 0 0)
(-1.94385e-17 -2.27682e-17 0)
(-1.73367e-16 1.30104e-16 0)
(-1.00139e-16 0 0)
(5.25628e-17 0 0)
(4.52826e-17 8.34833e-17 0)
(1.47057e-16 5.63783e-17 0)
(9.32182e-17 -1.11672e-16 0)
(-9.87971e-17 -1.64798e-16 0)
(-1.71151e-16 -3.36101e-17 0)
(-7.46761e-17 0 0)
(-1.76724e-16 0 0)
(4.51026e-16 -1.25767e-16 0)
(8.46686e-17 -7.15571e-17 0)
(-2.79466e-16 -7.80623e-17 0)
(-1.64504e-16 1.01915e-16 0)
(1.5998e-16 2.1684e-18 0)
(3.18891e-16 7.58939e-17 0)
(5.13671e-17 -2.60208e-17 0)
(-5.47052e-17 -1.14925e-16 0)
(-3.16428e-16 -1.10588e-16 0)
(-3.23653e-16 -2.99239e-16 0)
(-1.26018e-17 -6.07151e-17 0)
(2.28727e-16 2.62376e-16 0)
(-2.3561e-18 4.11995e-17 0)
(-2.25683e-16 1.56125e-16 0)
(-2.7293e-17 -4.33679e-18 0)
(2.69382e-16 2.1684e-18 0)
(1.41601e-16 -7.58939e-17 0)
(-1.09613e-16 1.30104e-17 0)
(3.22254e-20 2.1684e-18 0)
(6.65398e-17 2.1684e-17 0)
(-1.28581e-16 -5.42099e-17 0)
(-1.63676e-16 4.33679e-18 0)
(1.42436e-16 2.1684e-18 0)
(3.40394e-16 6.72203e-17 0)
(-2.72508e-17 6.50519e-18 0)
(-4.07787e-16 -2.1684e-18 0)
(-2.6204e-16 0 0)
(1.78177e-16 0 0)
(-1.84649e-17 -2.1684e-18 0)
(-3.1109e-16 -9.54094e-17 0)
(-8.9368e-18 0 0)
(1.59259e-16 0 0)
(4.46132e-16 0 0)
(7.29781e-17 0 0)
(-2.99028e-16 0 0)
(-7.80156e-18 1.40946e-16 0)
(2.79931e-16 0 0)
(-9.72195e-18 0 0)
(-2.8908e-16 2.7105e-16 0)
(3.95884e-17 3.68627e-17 0)
(3.01721e-15 -9.54094e-17 0)
(6.71627e-11 1.23165e-15 0)
(2.28096e-07 -2.80807e-15 0)
(7.35432e-05 8.34885e-16 0)
(0.00332049 1.4939e-15 0)
(0.0336304 -2.21039e-15 0)
(0.127823 -2.80709e-15 0)
(0.282125 4.1196e-16 0)