/*--------------------------------*- C++ -*----------------------------------*\
| =========                 |                                                 |
| \\      /  F ield         | OpenFOAM: The Open Source CFD Toolbox           |
|  \\    /   O peration     | Version:  4.1                                   |
|   \\  /    A nd           | Web:      www.OpenFOAM.org                      |
|    \\/     M anipulation  |                                                 |
\*---------------------------------------------------------------------------*/
FoamFile
{
    version     2.0;
    format      ascii;
    class       volVectorField;
    location    "0.14";
    object      U;
}
// * * * * * * * * * * * * * * * * * * * * * * * * * * * * * * * * * * * * * //

dimensions      [0 1 -1 0 0 0 0];

internalField   nonuniform List<vector> 
10000
(
(0 0 0)
(6.40601e-17 0 0)
(2.0376e-16 0 0)
(4.49787e-17 1.14925e-16 0)
(-9.20144e-17 0 0)
(-7.41532e-17 0 0)
(-1.18046e-16 0 0)
(-9.19016e-18 0 0)
(-9.45465e-32 0 0)
(9.85559e-17 1.14925e-16 0)
(3.01504e-16 0 0)
(2.18916e-18 -1.49619e-16 0)
(-3.03922e-16 0 0)
(-1.33571e-17 0 0)
(1.69856e-16 0 0)
(-6.07435e-18 1.23599e-16 0)
(-1.8338e-16 0 0)
(-3.43743e-17 0 0)
(-8.37701e-19 0 0)
(-2.31046e-17 0 0)
(3.01093e-20 0 0)
(1.11759e-17 9.32411e-17 0)
(4.42063e-18 0 0)
(7.19491e-17 0 0)
(-1.18649e-17 0 0)
(-1.22512e-16 0 0)
(-3.05767e-16 -1.17093e-16 0)
(-2.30708e-17 8.67359e-17 0)
(2.85155e-16 0 0)
(3.316e-17 1.36609e-16 0)
(-1.68355e-16 0 0)
(-2.02618e-20 -1.06251e-16 0)
(8.56164e-17 -2.1684e-18 0)
(-9.83967e-17 0 0)
(-5.42401e-17 1.04083e-16 0)
(1.69816e-14 8.26159e-16 0)
(2.83964e-10 2.08166e-16 0)
(4.21497e-07 -2.05998e-16 0)
(7.40806e-05 -1.14282e-15 0)
(0.00225376 1.21858e-14 0)
(0.0184662 1.32823e-15 0)
(0.0641387 1.76871e-14 0)
(0.136378 5.7426e-15 0)
(0.223312 4.94802e-15 0)
(0.317368 2.07469e-15 0)
(0.415457 -9.121e-15 0)
(0.516468 -7.28087e-15 0)
(0.620674 5.87268e-15 0)
(0.726308 8.32927e-15 0)
(0.833231 -6.10272e-15 0)
(0.916024 1.47542e-15 0)
(0.948337 3.96712e-15 0)
(0.923038 4.69621e-15 0)
(0.924775 6.05707e-15 0)
(0.927095 3.86118e-15 0)
(0.929752 3.00785e-15 0)
(0.931805 1.70832e-15 0)
(0.929188 2.14092e-15 0)
(0.944766 -1.82325e-16 0)
(0.955511 6.3412e-16 0)
(0.936907 -5.45589e-17 0)
(0.831769 1.10415e-16 0)
(0.461978 -8.31749e-16 0)
(0.0577242 1.31305e-15 0)
(0.000653917 -5.24554e-15 0)
(4.93742e-07 -3.85974e-16 0)
(1.90488e-11 0 0)
(5.015e-16 0 0)
(1.43239e-16 0 0)
(2.82925e-16 0 0)
(7.97187e-17 0 0)
(-1.24585e-16 0 0)
(1.04702e-17 1.51788e-16 0)
(-6.5736e-17 4.15248e-16 0)
(-1.77709e-16 1.81061e-16 0)
(4.2772e-17 0 0)
(2.52856e-16 0 0)
(5.08304e-17 0 0)
(-1.37852e-16 9.54094e-17 0)
(5.05694e-17 0 0)
(2.50619e-16 0 0)
(4.64907e-17 0 0)
(-1.5677e-16 0 0)
(4.51693e-17 0 0)
(2.40087e-16 8.34833e-17 0)
(7.09373e-17 0 0)
(-1.30848e-16 0 0)
(-2.35822e-17 0 0)
(-1.80245e-17 0 0)
(-8.36499e-17 0 0)
(-1.59025e-16 -6.50519e-18 0)
(-3.12881e-16 0 0)
(-1.17245e-16 0 0)
(5.99795e-17 0 0)
(2.50284e-16 0 0)
(4.75493e-17 0 0)
(-1.45548e-16 8.45675e-17 0)
(-1.1176e-16 0 0)
(-3.09274e-17 0 0)
(0 0 0)
(0 0 0)
(1.17745e-16 0 0)
(2.48906e-16 1.17093e-16 0)
(5.99745e-17 2.99239e-16 0)
(-1.30993e-16 1.17093e-16 0)
(-1.9332e-16 2.45029e-16 0)
(-2.24491e-16 4.98731e-17 0)
(-2.9229e-17 0 0)
(-2.28848e-27 0 0)
(1.13038e-16 0 0)
(3.56557e-16 0 0)
(3.77461e-17 0 0)
(-2.79054e-16 0 0)
(8.83019e-18 0 0)
(1.7657e-16 1.25767e-16 0)
(-1.94321e-17 3.07912e-16 0)
(-2.17725e-16 1.25767e-16 0)
(-7.58877e-17 0 0)
(-7.59348e-18 0 0)
(-8.76176e-17 0 0)
(2.80385e-19 0 0)
(2.78957e-17 2.1684e-18 0)
(1.68832e-17 0 0)
(1.39353e-16 6.07151e-17 0)
(-5.00278e-17 2.14671e-16 0)
(-2.52447e-16 2.1684e-17 0)
(-2.26415e-16 6.72203e-17 0)
(-5.74375e-18 2.7105e-16 0)
(1.90872e-16 8.89043e-17 0)
(3.45847e-17 0 0)
(-1.8092e-16 0 0)
(-1.5475e-19 6.28835e-17 0)
(1.80921e-16 -1.73472e-17 0)
(9.51676e-18 2.1684e-18 0)
(-6.07476e-17 2.34187e-16 0)
(1.77976e-14 8.32664e-16 0)
(2.83963e-10 7.69781e-16 0)
(4.21497e-07 1.47451e-16 0)
(7.40806e-05 -2.87331e-15 0)
(0.00225376 2.12931e-14 0)
(0.0184662 -3.26924e-14 0)
(0.0641387 2.9577e-14 0)
(0.136378 3.59598e-16 0)
(0.223312 -7.67061e-15 0)
(0.317368 5.48343e-15 0)
(0.415457 -2.95546e-15 0)
(0.516468 -2.26584e-15 0)
(0.620674 -6.79686e-16 0)
(0.726308 4.86048e-15 0)
(0.833231 5.74551e-16 0)
(0.916024 5.0136e-15 0)
(0.948337 4.19266e-15 0)
(0.923038 3.20166e-15 0)
(0.924775 5.65199e-15 0)
(0.927095 3.66432e-15 0)
(0.929752 3.24182e-15 0)
(0.931805 1.78872e-15 0)
(0.929188 -8.47746e-16 0)
(0.944766 -2.29251e-16 0)
(0.955511 5.0091e-16 0)
(0.936907 2.4679e-16 0)
(0.831769 1.82129e-15 0)
(0.461978 -6.05249e-16 0)
(0.0577242 2.29861e-15 0)
(0.000653917 -2.99064e-16 0)
(4.93742e-07 -1.63714e-16 0)
(1.90488e-11 6.07151e-17 0)
(5.07931e-16 0 0)
(1.6212e-16 9.75778e-18 0)
(2.91775e-16 1.14925e-16 0)
(1.09369e-16 1.51788e-17 0)
(-8.61251e-17 1.84314e-17 0)
(1.81004e-17 1.20346e-16 0)
(-8.16843e-17 2.23345e-16 0)
(-1.84537e-16 1.20346e-16 0)
(2.07089e-17 1.0083e-16 0)
(2.11878e-16 0 0)
(1.22104e-17 2.81892e-17 0)
(-1.59635e-16 1.98408e-16 0)
(1.35737e-17 2.81892e-17 0)
(2.14843e-16 0 0)
(3.25938e-17 0 0)
(-1.6423e-16 0 0)
(3.47784e-17 1.13841e-16 0)
(2.42168e-16 1.85398e-16 0)
(7.12824e-17 1.19262e-17 0)
(-1.52269e-16 0 0)
(-5.06966e-17 0 0)
(-4.84676e-17 0 0)
(-1.38102e-16 -6.50519e-18 0)
(-1.06396e-16 -9.32411e-17 0)
(-2.22061e-16 5.96309e-17 0)
(-1.01359e-16 1.8323e-16 0)
(7.10095e-17 1.95156e-17 0)
(2.67628e-16 0 0)
(6.215e-17 1.95156e-17 0)
(-1.35699e-16 1.87566e-16 0)
(-1.926e-16 1.53956e-16 0)
(-1.04095e-16 8.45675e-17 0)
(-1.6263e-17 1.65882e-16 0)
(0 0 0)
(1.77927e-16 0 0)
(4.70723e-16 0 0)
(8.68468e-17 7.58939e-17 0)
(-3.63776e-16 3.44775e-16 0)
(-3.24267e-16 5.65951e-16 0)
(-2.65246e-16 2.38524e-16 0)
(-4.69447e-17 0 0)
(-8.38778e-24 0 0)
(1.52936e-16 0 0)
(4.35758e-16 0 0)
(1.04034e-16 4.33679e-18 0)
(-1.65491e-16 0 0)
(5.16486e-17 2.14671e-16 0)
(2.76776e-16 6.28835e-17 0)
(-3.2551e-17 7.15571e-17 0)
(-3.72383e-16 0 0)
(-1.22085e-16 0 0)
(-3.33393e-17 1.01915e-16 0)
(-2.00479e-16 0 0)
(1.63442e-18 0 0)
(1.1457e-16 0 0)
(5.50477e-17 7.15571e-17 0)
(1.49089e-16 2.90565e-16 0)
(-8.39144e-17 5.22584e-16 0)
(-3.51676e-16 2.53702e-16 0)
(-3.46089e-16 0 0)
(-1.41869e-17 4.98731e-17 0)
(2.81063e-16 0 0)
(7.18912e-17 0 0)
(-5.4462e-22 9.75778e-17 0)
(-6.44807e-19 3.5128e-16 0)
(4.89458e-21 1.71303e-16 0)
(1.4555e-17 1.79977e-16 0)
(1.11292e-16 4.25006e-16 0)
(1.77967e-14 2.21176e-16 0)
(2.83965e-10 2.82108e-15 0)
(4.21497e-07 1.8735e-15 0)
(7.40806e-05 5.6165e-16 0)
(0.00225376 1.9542e-14 0)
(0.0184662 -3.11814e-14 0)
(0.0641387 2.67173e-14 0)
(0.136378 -1.97474e-16 0)
(0.223312 -1.5432e-14 0)
(0.317368 9.62996e-15 0)
(0.415457 -2.63992e-15 0)
(0.516468 1.58541e-15 0)
(0.620674 -1.44905e-15 0)
(0.726308 4.6826e-15 0)
(0.833231 2.10861e-15 0)
(0.916024 1.26792e-15 0)
(0.948337 2.33947e-15 0)
(0.923038 1.57426e-15 0)
(0.924775 6.44816e-15 0)
(0.927095 4.00063e-15 0)
(0.929752 2.82068e-15 0)
(0.931805 1.36479e-15 0)
(0.929188 -2.11524e-15 0)
(0.944766 5.79726e-16 0)
(0.955511 -1.62546e-15 0)
(0.936907 9.99907e-16 0)
(0.831769 4.0586e-15 0)
(0.461978 2.106e-15 0)
(0.0577242 3.54348e-15 0)
(0.000653917 1.26994e-15 0)
(4.93742e-07 1.13516e-15 0)
(1.90487e-11 1.13841e-16 0)
(5.30492e-16 7.48097e-17 0)
(1.38003e-16 1.8865e-16 0)
(2.16027e-16 3.3827e-16 0)
(4.67924e-17 1.72388e-16 0)
(-1.51484e-16 1.50704e-16 0)
(-2.40022e-17 1.65882e-16 0)
(2.26368e-17 4.33679e-17 0)
(-6.89182e-17 1.60461e-16 0)
(4.95626e-17 2.78639e-16 0)
(1.57869e-16 1.81061e-16 0)
(-6.36061e-18 7.80623e-17 0)
(-1.90768e-16 1.06251e-16 0)
(-7.26391e-17 1.72388e-16 0)
(1.08673e-16 1.39862e-16 0)
(1.12378e-16 8.13149e-17 0)
(5.05806e-18 2.02745e-16 0)
(1.13198e-16 3.06828e-16 0)
(1.62811e-16 1.20346e-16 0)
(-9.19862e-18 -9.21569e-17 0)
(-1.79491e-16 -5.09573e-17 0)
(-7.83665e-17 5.20415e-17 0)
(-7.67001e-17 -4.98731e-17 0)
(-1.78156e-16 5.42099e-17 0)
(-7.57022e-17 2.1684e-17 0)
(-6.99761e-17 2.12503e-16 0)
(-1.19314e-16 3.79469e-16 0)
(-1.96937e-17 2.47197e-16 0)
(1.89506e-16 9.54094e-17 0)
(1.30716e-16 -4.87889e-17 0)
(-7.67228e-17 1.39862e-16 0)
(-2.79033e-16 3.41522e-16 0)
(-1.77103e-16 2.47197e-16 0)
(-2.01661e-16 3.49112e-16 0)
(-2.1684e-18 -2.1684e-18 0)
(2.20576e-16 -2.1684e-18 0)
(5.27419e-16 -2.1684e-18 0)
(1.89816e-16 3.90311e-17 0)
(-2.0806e-16 2.86228e-16 0)
(-5.3445e-16 1.47451e-16 0)
(-2.43742e-16 -2.1684e-18 0)
(-2.87374e-17 -2.1684e-18 0)
(-3.77661e-21 0 0)
(6.20681e-17 0 0)
(2.92914e-16 -4.33679e-18 0)
(1.10177e-16 -1.7564e-16 0)
(1.50668e-16 1.69135e-16 0)
(9.42493e-17 5.22584e-16 0)
(1.90943e-16 2.4286e-16 0)
(-2.09545e-17 0 0)
(-2.16671e-16 -2.1684e-18 0)
(-7.32315e-18 1.17093e-16 0)
(-5.92354e-17 3.49112e-16 0)
(-2.42399e-16 1.73472e-16 0)
(5.62873e-18 0 0)
(2.31934e-16 1.27935e-16 0)
(5.95092e-17 3.12249e-16 0)
(2.34061e-16 1.25767e-16 0)
(-1.30285e-16 1.30104e-16 0)
(-4.90916e-16 5.20415e-17 0)
(-4.48764e-16 -4.33679e-18 0)
(-3.16647e-17 0 0)
(3.5003e-16 -2.1684e-18 0)
(9.88583e-17 0 0)
(-2.19626e-21 0 0)
(-2.13286e-18 9.75778e-17 0)
(1.8122e-20 0 0)
(-2.14632e-17 -4.81481e-34 0)
(2.00238e-16 1.51788e-16 0)
(1.75463e-14 1.32272e-16 0)
(2.83969e-10 2.05998e-15 0)
(4.21497e-07 6.58976e-15 0)
(7.40806e-05 -1.94734e-15 0)
(0.00225376 1.25247e-14 0)
(0.0184662 -2.31944e-14 0)
(0.0641387 1.5928e-14 0)
(0.136378 6.97986e-15 0)
(0.223312 -1.98881e-14 0)
(0.317368 1.28585e-14 0)
(0.415457 -1.64331e-15 0)
(0.516468 1.42772e-15 0)
(0.620674 -9.66665e-16 0)
(0.726308 1.04534e-15 0)
(0.833231 -3.39297e-15 0)
(0.916024 8.09911e-17 0)
(0.948337 1.44188e-15 0)
(0.923038 3.36107e-15 0)
(0.924775 4.21791e-15 0)
(0.927095 2.97819e-15 0)
(0.929752 2.10608e-15 0)
(0.931805 1.39931e-15 0)
(0.929188 -1.06427e-16 0)
(0.944766 -2.70799e-16 0)
(0.955511 -8.49152e-16 0)
(0.936907 3.35002e-16 0)
(0.831769 1.02887e-15 0)
(0.461978 4.3545e-15 0)
(0.0577242 5.62101e-15 0)
(0.000653917 -2.21589e-15 0)
(4.93742e-07 1.07119e-15 0)
(1.90488e-11 6.45098e-16 0)
(5.93046e-16 2.23345e-16 0)
(2.22413e-16 3.3068e-16 0)
(7.10182e-17 3.66459e-16 0)
(-1.00328e-16 2.1684e-16 0)
(-2.12476e-16 3.29596e-16 0)
(-4.78997e-17 3.0466e-16 0)
(3.59024e-17 1.5504e-16 0)
(9.69239e-17 2.58039e-16 0)
(2.19891e-17 3.02491e-16 0)
(7.71955e-17 3.72964e-16 0)
(-2.88532e-17 2.1684e-16 0)
(-1.99267e-16 2.08166e-16 0)
(-4.0282e-17 3.67543e-16 0)
(1.04187e-16 4.00069e-16 0)
(2.4745e-16 2.56955e-16 0)
(1.95555e-16 4.02238e-16 0)
(-1.94399e-17 3.97901e-16 0)
(-1.2848e-16 1.59377e-16 0)
(-2.10413e-17 -1.40946e-17 0)
(2.8408e-17 8.78201e-17 0)
(-8.17602e-17 1.30104e-16 0)
(-1.38606e-16 1.73472e-17 0)
(-7.50634e-17 1.19262e-16 0)
(4.58156e-18 1.6263e-17 0)
(3.44147e-17 8.99885e-17 0)
(-1.53216e-16 2.52618e-16 0)
(-1.65711e-16 4.4669e-16 0)
(-1.7127e-17 3.03576e-16 0)
(-4.79111e-17 1.33356e-16 0)
(4.32453e-17 2.27682e-17 0)
(-1.12498e-16 1.7564e-16 0)
(-2.53351e-16 1.91903e-16 0)
(-4.30427e-16 1.66967e-16 0)
(-2.1684e-18 2.1684e-18 0)
(2.83661e-16 2.1684e-18 0)
(6.2327e-16 2.1684e-18 0)
(2.34582e-16 1.66967e-16 0)
(-4.05447e-16 -1.43114e-16 0)
(-4.86195e-16 -5.44268e-16 0)
(-1.76479e-16 -2.40692e-16 0)
(-1.233e-18 2.1684e-18 0)
(-2.89655e-19 0 0)
(1.03845e-16 -2.1684e-18 0)
(3.52054e-16 -6.07151e-17 0)
(1.71704e-16 1.17093e-16 0)
(3.53235e-16 0 0)
(1.70673e-16 1.69135e-16 0)
(2.17892e-16 -2.85277e-31 0)
(-3.58413e-17 9.10727e-17 0)
(-3.11597e-16 2.1684e-18 0)
(-5.21879e-17 2.1684e-18 0)
(-8.14151e-17 -1.51788e-17 0)
(-2.87374e-16 0 0)
(4.05362e-17 0 0)
(2.95713e-16 2.60208e-16 0)
(4.31032e-17 3.46943e-17 0)
(-3.80984e-17 -7.37255e-17 0)
(-5.95479e-17 -3.40438e-16 0)
(-2.42558e-16 -1.58293e-16 0)
(-2.05881e-16 -1.14925e-16 0)
(5.20943e-17 0 0)
(9.94789e-17 2.1684e-18 0)
(2.49896e-22 0 0)
(-1.50372e-19 0 0)
(-1.62793e-17 0 0)
(5.17087e-19 0 0)
(6.09685e-17 2.1684e-18 0)
(2.58207e-16 1.95156e-17 0)
(1.79764e-14 3.62122e-16 0)
(2.83969e-10 -5.44268e-16 0)
(4.21497e-07 1.29128e-14 0)
(7.40806e-05 -5.25869e-15 0)
(0.00225376 1.03543e-14 0)
(0.0184662 -1.08329e-14 0)
(0.0641387 2.83791e-15 0)
(0.136378 1.71461e-14 0)
(0.223312 -2.33906e-14 0)
(0.317368 1.56052e-14 0)
(0.415457 -2.23222e-15 0)
(0.516468 -2.46123e-15 0)
(0.620674 1.94466e-16 0)
(0.726308 -1.18765e-15 0)
(0.833231 -2.75599e-15 0)
(0.916024 -1.01239e-15 0)
(0.948337 -1.64851e-15 0)
(0.923038 2.01696e-15 0)
(0.924775 -1.08142e-15 0)
(0.927095 5.92936e-16 0)
(0.929752 1.97984e-15 0)
(0.931805 -5.05147e-16 0)
(0.929188 2.52259e-15 0)
(0.944766 -2.81749e-15 0)
(0.955511 -5.72754e-16 0)
(0.936907 -2.11607e-16 0)
(0.831769 -1.88598e-15 0)
(0.461978 8.64674e-15 0)
(0.0577242 -8.52294e-16 0)
(0.000653917 -1.71203e-16 0)
(4.93742e-07 -1.07119e-15 0)
(1.90479e-11 8.55432e-16 0)
(6.45398e-16 2.13587e-16 0)
(1.57422e-16 1.24683e-16 0)
(9.49135e-17 1.68051e-16 0)
(5.63403e-19 7.58939e-17 0)
(-1.01843e-16 1.79977e-16 0)
(-1.55821e-17 1.01915e-16 0)
(6.60173e-17 1.61546e-16 0)
(-2.97986e-17 1.78893e-16 0)
(4.99343e-17 9.75778e-17 0)
(1.39903e-16 2.00577e-16 0)
(3.76484e-17 9.8662e-17 0)
(-4.89164e-17 2.13587e-16 0)
(7.87836e-17 3.66459e-16 0)
(1.08399e-17 4.85721e-16 0)
(1.27791e-16 3.75133e-16 0)
(1.99171e-17 2.26597e-16 0)
(-7.28234e-17 1.9624e-16 0)
(-1.45814e-16 2.52618e-16 0)
(-3.09264e-17 1.98408e-16 0)
(1.77989e-17 2.62376e-16 0)
(-1.73675e-16 1.22514e-16 0)
(-2.99163e-16 1.39862e-16 0)
(-2.08192e-16 -3.79469e-17 0)
(5.29132e-18 -9.32411e-17 0)
(2.13083e-16 -9.8662e-17 0)
(1.03548e-16 -4.11995e-17 0)
(5.51519e-17 2.4286e-16 0)
(3.61324e-17 4.62953e-16 0)
(-1.16296e-16 3.41522e-16 0)
(-1.439e-16 6.72203e-17 0)
(-2.16779e-16 -1.35525e-16 0)
(-3.46553e-16 -5.74625e-17 0)
(-4.71626e-16 -1.81061e-16 0)
(0 0 0)
(1.68274e-16 0 0)
(4.52455e-16 -4.98731e-17 0)
(2.42254e-17 -2.19008e-16 0)
(-5.33213e-16 -5.31257e-16 0)
(-2.02382e-16 -2.34187e-16 0)
(-3.58022e-17 -2.1684e-17 0)
(2.6052e-18 0 0)
(-5.40342e-18 0 0)
(1.35294e-16 2.1684e-18 0)
(3.97186e-16 1.23599e-16 0)
(1.83318e-16 2.94902e-16 0)
(-5.66426e-17 5.20415e-17 0)
(9.96246e-17 -1.82145e-16 0)
(2.87216e-16 -6.50519e-17 0)
(-5.1666e-17 -9.32411e-17 0)
(-3.95876e-16 0 0)
(-1.04386e-16 -9.97462e-17 0)
(-3.7556e-18 -3.77301e-16 0)
(-5.79765e-17 -1.36609e-16 0)
(1.76626e-16 0 0)
(4.73243e-17 1.51788e-17 0)
(-1.79364e-16 -2.23345e-16 0)
(-2.06858e-17 -4.33679e-17 0)
(3.63854e-20 -9.32411e-17 0)
(-4.31967e-18 0 0)
(-1.17369e-19 1.19262e-16 0)
(3.26982e-19 0 0)
(2.08312e-18 0 0)
(-3.57567e-22 0 0)
(-2.92862e-18 0 0)
(-8.01664e-17 0 0)
(4.42555e-18 0 0)
(1.30861e-16 0 0)
(2.78053e-16 -6.50519e-18 0)
(1.82815e-14 -9.32411e-17 0)
(2.83967e-10 -1.07986e-15 0)
(4.21497e-07 7.23594e-15 0)
(7.40806e-05 -1.81072e-15 0)
(0.00225376 5.08809e-15 0)
(0.0184662 -4.13667e-15 0)
(0.0641387 -8.93402e-15 0)
(0.136378 2.07397e-14 0)
(0.223312 -2.52215e-14 0)
(0.317368 1.25926e-14 0)
(0.415457 -3.38972e-15 0)
(0.516468 -3.05426e-15 0)
(0.620674 5.54133e-16 0)
(0.726308 -7.0736e-16 0)
(0.833231 -5.4565e-16 0)
(0.916024 -2.61369e-15 0)
(0.948337 -2.58098e-15 0)
(0.923038 -1.35723e-15 0)
(0.924775 -1.73431e-15 0)
(0.927095 -7.59742e-17 0)
(0.929752 7.65747e-16 0)
(0.931805 -2.35438e-15 0)
(0.929188 1.17574e-15 0)
(0.944766 -4.98633e-15 0)
(0.955511 -2.23314e-15 0)
(0.936907 -6.98049e-16 0)
(0.831769 -1.07348e-15 0)
(0.461978 9.62549e-15 0)
(0.0577242 -4.24081e-15 0)
(0.000653917 2.00351e-15 0)
(4.93742e-07 -1.58401e-15 0)
(1.90473e-11 3.49112e-16 0)
(3.79915e-16 7.48097e-17 0)
(5.43602e-17 -7.26413e-17 0)
(1.56387e-16 -1.19262e-17 0)
(4.68571e-18 0 0)
(-1.21254e-16 -3.25259e-18 0)
(-1.81562e-17 -1.04083e-16 0)
(8.68823e-17 1.0842e-18 0)
(-1.5554e-17 3.25259e-18 0)
(8.80219e-17 -1.0083e-16 0)
(1.92689e-16 1.04241e-31 0)
(6.35124e-17 0 0)
(2.82688e-17 3.46943e-17 0)
(1.2428e-16 1.51788e-16 0)
(1.43583e-17 2.6346e-16 0)
(3.41318e-20 1.97324e-16 0)
(-2.68284e-17 1.95156e-17 0)
(-1.33574e-16 0 0)
(-2.31937e-19 1.0083e-16 0)
(1.33625e-16 2.76471e-16 0)
(1.18526e-17 9.97462e-17 0)
(-2.73284e-16 0 0)
(-4.83703e-16 7.48097e-17 0)
(-3.40468e-16 -7.37255e-17 0)
(-1.10163e-16 2.05998e-17 0)
(1.14052e-16 -2.15755e-16 0)
(3.33901e-16 -2.47197e-16 0)
(3.05908e-16 -6.50519e-18 0)
(5.80186e-17 2.45029e-16 0)
(-1.89735e-16 1.52872e-16 0)
(-3.47257e-16 -9.43252e-17 0)
(-3.1336e-16 -3.0466e-16 0)
(-2.10257e-16 -2.66713e-16 0)
(-2.80807e-16 -3.67543e-16 0)
(0 0 0)
(3.32596e-17 -2.81892e-17 0)
(1.77059e-16 -3.16586e-16 0)
(-4.07145e-17 -5.65951e-16 0)
(-2.09683e-16 -2.9707e-16 0)
(-2.14581e-17 -4.33679e-18 0)
(4.54891e-17 0 0)
(1.95247e-17 0 0)
(-3.44975e-17 0 0)
(1.16337e-16 0 0)
(3.97175e-16 0 0)
(2.15358e-18 8.45675e-17 0)
(-3.6486e-16 0 0)
(-7.05605e-17 -5.20415e-17 0)
(1.36831e-16 0 0)
(2.22691e-17 -9.32411e-17 0)
(-2.11223e-16 0 0)
(-4.67958e-17 0 0)
(-8.66029e-18 -1.14925e-16 0)
(-1.13393e-17 0 0)
(1.3988e-16 0 0)
(3.3787e-18 -9.32411e-17 0)
(-1.39106e-16 -4.55363e-17 0)
(-1.45207e-17 0 0)
(3.32422e-19 0 0)
(-1.1227e-18 0 0)
(-3.91171e-19 0 0)
(6.87291e-19 0 0)
(-1.69376e-18 0 0)
(-2.30848e-20 0 0)
(-2.03056e-17 0 0)
(-1.68997e-16 0 0)
(1.37345e-17 -9.75778e-17 0)
(1.99315e-16 -4.33679e-18 0)
(1.47074e-16 -1.84314e-16 0)
(1.79428e-14 -4.7271e-16 0)
(2.83967e-10 -3.27428e-16 0)
(4.21497e-07 9.04222e-16 0)
(7.40806e-05 7.3947e-16 0)
(0.00225376 -1.06455e-16 0)
(0.0184662 2.31283e-16 0)
(0.0641387 -1.21556e-14 0)
(0.136378 1.94707e-14 0)
(0.223312 -2.05852e-14 0)
(0.317368 8.95078e-15 0)
(0.415457 -1.4668e-15 0)
(0.516468 -9.68383e-16 0)
(0.620674 2.5677e-16 0)
(0.726308 1.92536e-16 0)
(0.833231 -2.3352e-15 0)
(0.916024 5.85459e-16 0)
(0.948337 1.59343e-15 0)
(0.923038 -8.99485e-17 0)
(0.924775 -8.68785e-16 0)
(0.927095 3.34624e-16 0)
(0.929752 -2.32154e-17 0)
(0.931805 -1.58529e-15 0)
(0.929188 -3.71118e-16 0)
(0.944766 -2.10432e-15 0)
(0.955511 -1.60601e-15 0)
(0.936907 -1.39355e-15 0)
(0.831769 3.9426e-16 0)
(0.461978 4.37175e-15 0)
(0.0577242 -1.05788e-15 0)
(0.000653917 8.60351e-16 0)
(4.93742e-07 -3.83806e-16 0)
(1.90471e-11 9.75778e-18 0)
(4.02069e-16 -5.52941e-17 0)
(1.11958e-16 -1.0842e-17 0)
(2.01699e-16 0 0)
(4.55395e-18 8.45675e-17 0)
(-1.91813e-16 0 0)
(-4.02919e-17 -1.51788e-17 0)
(8.34909e-17 -8.99885e-17 0)
(-2.00279e-17 -2.38524e-17 0)
(8.4023e-17 -2.27682e-17 0)
(2.03955e-16 0 0)
(4.53362e-17 0 0)
(7.17339e-17 2.1684e-18 0)
(1.94691e-16 0 0)
(5.36474e-17 0 0)
(-1.60589e-18 0 0)
(-2.82367e-17 0 0)
(-1.53494e-16 0 0)
(4.32027e-17 0 0)
(2.18361e-16 1.27935e-16 0)
(1.69089e-17 0 0)
(-2.59615e-16 0 0)
(-4.86232e-16 0 0)
(-3.08601e-16 0 0)
(-1.74436e-16 -1.6263e-17 0)
(2.68224e-17 -8.89043e-17 0)
(3.06109e-16 -9.8662e-17 0)
(3.83321e-16 0 0)
(1.23069e-16 0 0)
(-2.67919e-16 0 0)
(-4.70653e-16 5.63783e-17 0)
(-3.07283e-16 -9.75778e-17 0)
(-1.12482e-16 -8.99885e-17 0)
(-1.01915e-16 -1.90819e-16 0)
(1.01915e-16 1.99492e-16 0)
(9.9899e-17 0 0)
(-9.0085e-17 -6.72203e-17 0)
(-5.86434e-17 -2.81892e-16 0)
(-1.35529e-17 -5.42099e-17 0)
(1.51565e-17 0 0)
(2.0142e-16 2.1684e-17 0)
(5.40044e-17 1.79977e-16 0)
(-1.00164e-16 5.85467e-17 0)
(1.21732e-16 -2.1684e-18 0)
(4.09026e-16 0 0)
(4.17403e-17 0 0)
(-3.25108e-16 0 0)
(-3.45808e-17 -7.15571e-17 0)
(1.79126e-16 0 0)
(2.69377e-17 9.32411e-17 0)
(-2.08783e-16 4.98731e-17 0)
(-1.41582e-16 0 0)
(-3.42631e-17 0 0)
(1.12058e-17 0 0)
(2.07273e-16 0 0)
(5.13956e-18 9.32411e-17 0)
(-1.94661e-16 0 0)
(-1.91773e-17 0 0)
(2.64131e-18 0 0)
(-1.72414e-17 0 0)
(-7.3445e-18 0 0)
(4.37804e-19 0 0)
(-2.32896e-17 0 0)
(-4.40793e-19 0 0)
(-6.16139e-17 0 0)
(-1.9559e-16 -1.60461e-16 0)
(9.68565e-18 -3.49112e-16 0)
(2.15612e-16 -1.66967e-16 0)
(8.50306e-17 -6.50519e-18 0)
(1.77746e-14 -2.49366e-16 0)
(2.83967e-10 6.50519e-18 0)
(4.21497e-07 -2.68231e-15 0)
(7.40806e-05 2.01023e-15 0)
(0.00225376 -2.46149e-15 0)
(0.0184662 2.6983e-15 0)
(0.0641387 -9.27645e-15 0)
(0.136378 1.27871e-14 0)
(0.223312 -1.18821e-14 0)
(0.317368 2.11902e-15 0)
(0.415457 -1.96041e-15 0)
(0.516468 2.8623e-16 0)
(0.620674 -4.13476e-16 0)
(0.726308 1.95361e-15 0)
(0.833231 -2.34676e-16 0)
(0.916024 2.12335e-15 0)
(0.948337 2.42421e-15 0)
(0.923038 6.64211e-16 0)
(0.924775 9.99689e-17 0)
(0.927095 -8.20521e-16 0)
(0.929752 -1.25327e-15 0)
(0.931805 -1.2653e-15 0)
(0.929188 -1.75421e-15 0)
(0.944766 -1.35693e-15 0)
(0.955511 -5.80237e-16 0)
(0.936907 -7.09266e-16 0)
(0.831769 1.5631e-15 0)
(0.461978 -1.2615e-15 0)
(0.0577242 -2.2108e-16 0)
(0.000653917 -2.14221e-15 0)
(4.93742e-07 -9.75778e-17 0)
(1.90471e-11 -1.95156e-17 0)
(3.77704e-16 5.52941e-17 0)
(8.91636e-17 0 0)
(1.96858e-16 -1.01915e-16 0)
(1.80071e-18 -8.45675e-17 0)
(-1.93132e-16 -1.44198e-16 0)
(-4.64742e-17 -1.07336e-16 0)
(9.48988e-17 -2.49366e-16 0)
(-9.07827e-18 -1.46367e-16 0)
(1.19852e-16 -1.84314e-17 0)
(2.5745e-16 -8.89043e-17 0)
(1.02504e-16 -9.32411e-17 0)
(4.96655e-18 5.52941e-17 0)
(5.45802e-18 -8.67359e-17 0)
(-2.79299e-18 -2.00577e-16 0)
(2.2783e-17 -1.87566e-16 0)
(1.09539e-16 -1.49619e-16 0)
(2.52509e-18 -2.27682e-17 0)
(4.79065e-17 6.83045e-17 0)
(1.0568e-16 0 0)
(-8.01679e-19 0 0)
(-2.24897e-16 0 0)
(-4.36748e-16 0 0)
(-4.29023e-16 6.83045e-17 0)
(-2.56655e-16 -1.01915e-16 0)
(7.68125e-17 -1.0842e-18 0)
(3.66463e-16 0 0)
(4.02937e-16 -5.20415e-17 0)
(2.06437e-16 -1.52872e-16 0)
(-1.15276e-16 4.01153e-17 0)
(-3.52003e-16 2.27682e-16 0)
(-4.2859e-16 1.25767e-16 0)
(-2.67011e-16 1.64798e-16 0)
(-1.60461e-16 1.27935e-16 0)
(3.79469e-16 4.7271e-16 0)
(1.57395e-16 1.84314e-16 0)
(-2.1324e-16 1.34441e-16 0)
(-2.46762e-16 -1.32272e-16 0)
(-3.9983e-17 2.1684e-18 0)
(1.13652e-16 0 0)
(3.02059e-16 2.60208e-16 0)
(8.71582e-17 4.74879e-16 0)
(-9.98138e-17 2.88397e-16 0)
(1.4914e-16 1.10588e-16 0)
(3.04043e-16 1.32272e-16 0)
(4.41527e-17 -1.32272e-16 0)
(-2.32313e-16 -7.80623e-17 0)
(-2.76237e-17 -2.68881e-16 0)
(1.9713e-16 -7.15571e-17 0)
(3.96313e-17 6.50519e-18 0)
(-2.24602e-16 2.73218e-16 0)
(-3.16656e-16 9.10727e-17 0)
(-9.3196e-17 0 0)
(5.04399e-17 0 0)
(2.49216e-16 0 0)
(4.43422e-18 -3.03576e-17 0)
(-2.10408e-16 0 0)
(-1.04974e-17 0 0)
(5.45265e-18 0 0)
(-1.12606e-16 0 0)
(-4.76564e-17 0 0)
(-7.27055e-18 0 0)
(-9.8319e-17 0 0)
(-4.14719e-18 0 0)
(-9.67904e-17 0 0)
(-3.42099e-16 8.67359e-18 0)
(-3.40748e-18 2.1684e-17 0)
(3.02054e-16 0 0)
(1.20751e-16 0 0)
(1.74416e-14 -2.81892e-17 0)
(2.83967e-10 -7.58939e-17 0)
(4.21497e-07 -7.53735e-15 0)
(7.40806e-05 3.0598e-15 0)
(0.00225376 -2.41804e-15 0)
(0.0184662 3.81067e-16 0)
(0.0641387 -2.77034e-15 0)
(0.136378 2.01375e-15 0)
(0.223312 -2.34117e-16 0)
(0.317368 -5.04733e-15 0)
(0.415457 -1.74953e-15 0)
(0.516468 9.44387e-16 0)
(0.620674 -7.92967e-16 0)
(0.726308 1.81967e-15 0)
(0.833231 1.94446e-15 0)
(0.916024 3.40477e-15 0)
(0.948337 3.0741e-15 0)
(0.923038 8.98845e-16 0)
(0.924775 1.26899e-15 0)
(0.927095 -1.65354e-15 0)
(0.929752 -3.54942e-15 0)
(0.931805 -1.32459e-15 0)
(0.929188 -2.79095e-15 0)
(0.944766 -1.24353e-15 0)
(0.955511 4.74468e-16 0)
(0.936907 -4.78793e-16 0)
(0.831769 1.76274e-15 0)
(0.461978 -3.80925e-15 0)
(0.0577242 -2.84098e-16 0)
(0.000653917 -2.0176e-15 0)
(4.93742e-07 5.67035e-16 0)
(1.90476e-11 -9.12895e-16 0)
(3.90127e-16 2.60208e-17 0)
(-2.93103e-17 -8.23991e-17 0)
(6.68138e-17 -2.41776e-16 0)
(1.57674e-18 -1.95156e-16 0)
(-5.24943e-17 -2.94902e-16 0)
(-5.31712e-17 -1.48535e-16 0)
(8.91808e-17 -7.80623e-17 0)
(-1.22816e-17 -4.44521e-17 0)
(3.34016e-17 -8.13149e-17 0)
(1.68518e-16 -2.1684e-16 0)
(1.15522e-16 -2.54787e-16 0)
(8.37662e-18 -1.47451e-16 0)
(-1.07565e-16 -2.69965e-16 0)
(-2.74972e-18 -4.03322e-16 0)
(5.12027e-17 -3.85975e-16 0)
(1.83805e-16 -3.44775e-16 0)
(7.77767e-17 -1.89735e-16 0)
(8.77551e-17 -6.83045e-17 0)
(1.1798e-16 0 0)
(-7.40092e-18 0 0)
(-7.25639e-17 -6.72203e-17 0)
(-3.06601e-16 3.25259e-17 0)
(-4.50914e-16 2.27682e-16 0)
(-2.33471e-16 1.0083e-16 0)
(3.42281e-17 2.1684e-18 0)
(2.50956e-16 9.10727e-17 0)
(3.81278e-16 -1.87566e-16 0)
(2.29729e-16 -3.41522e-16 0)
(7.01572e-17 -1.14925e-16 0)
(-2.80422e-16 5.09573e-17 0)
(-3.93859e-16 2.49366e-16 0)
(-2.60935e-16 3.82722e-16 0)
(-3.62122e-16 3.29596e-16 0)
(5.94141e-16 2.53702e-16 0)
(2.09988e-16 1.04083e-16 0)
(-2.40876e-16 4.33679e-17 0)
(-3.25853e-16 1.38777e-16 0)
(-4.97345e-18 6.28835e-17 0)
(2.81957e-16 2.12503e-16 0)
(4.86177e-16 1.6263e-16 0)
(1.30112e-16 2.32018e-16 0)
(-2.833e-16 1.86482e-16 0)
(2.54565e-16 3.5128e-16 0)
(-5.25223e-17 4.55363e-17 0)
(-1.85316e-16 -2.53702e-16 0)
(-1.75014e-16 4.81481e-34 0)
(-8.27331e-17 8.45675e-17 0)
(2.2877e-16 -2.1684e-18 0)
(2.66657e-16 -2.21176e-16 0)
(-4.83622e-17 8.67359e-17 0)
(-4.14228e-16 2.34187e-16 0)
(-1.50944e-16 5.85467e-17 0)
(8.3333e-17 1.49619e-16 0)
(-1.43896e-16 -1.92592e-33 0)
(-1.25739e-16 -2.75386e-16 0)
(1.27595e-16 3.25259e-17 0)
(2.84934e-16 2.60208e-16 0)
(-5.21466e-18 1.17093e-16 0)
(-3.11805e-16 2.38524e-17 0)
(-1.32137e-16 0 0)
(-2.95841e-17 0 0)
(-2.0058e-16 2.60208e-17 0)
(-2.38032e-17 -4.33679e-18 0)
(5.04313e-17 2.60208e-17 0)
(-1.32105e-16 2.08166e-16 0)
(5.11305e-17 3.88143e-16 0)
(3.95016e-17 1.36609e-16 0)
(-1.15104e-16 8.67359e-18 0)
(1.74754e-14 -2.60208e-17 0)
(2.83967e-10 -4.7271e-16 0)
(4.21497e-07 -4.33246e-15 0)
(7.40806e-05 -4.28285e-15 0)
(0.00225376 6.34816e-15 0)
(0.0184662 -9.35486e-15 0)
(0.0641387 5.7995e-15 0)
(0.136378 -1.07745e-14 0)
(0.223312 1.01354e-14 0)
(0.317368 -8.91075e-15 0)
(0.415457 1.32308e-15 0)
(0.516468 -1.71395e-18 0)
(0.620674 -1.93522e-16 0)
(0.726308 1.65539e-15 0)
(0.833231 -1.96873e-15 0)
(0.916024 4.06463e-15 0)
(0.948337 3.90552e-15 0)
(0.923038 1.19334e-15 0)
(0.924775 2.06776e-16 0)
(0.927095 -4.99741e-17 0)
(0.929752 -2.54282e-15 0)
(0.931805 -1.1979e-16 0)
(0.929188 -2.9405e-15 0)
(0.944766 -1.42927e-15 0)
(0.955511 6.58567e-16 0)
(0.936907 4.99699e-17 0)
(0.831769 4.24374e-16 0)
(0.461978 -2.478e-15 0)
(0.0577242 -2.748e-16 0)
(0.000653917 -1.3187e-15 0)
(4.93742e-07 -6.83045e-17 0)
(1.90492e-11 -5.54025e-16 0)
(4.84194e-16 -1.56125e-16 0)
(-6.60062e-17 2.05998e-17 0)
(3.7679e-17 -5.63783e-17 0)
(3.8943e-18 -4.22837e-17 0)
(-2.74195e-17 -1.33356e-16 0)
(7.81016e-17 -2.92734e-17 0)
(1.81206e-17 3.68627e-17 0)
(-8.48675e-17 -6.61361e-17 0)
(-7.88772e-17 3.46943e-17 0)
(6.62208e-17 -8.99885e-17 0)
(1.63814e-16 -1.04083e-16 0)
(-9.88461e-18 -4.55363e-17 0)
(-1.58465e-16 -1.78893e-16 0)
(2.74479e-18 -1.8865e-16 0)
(9.5778e-17 -1.84314e-16 0)
(2.56738e-16 -1.68051e-16 0)
(1.5446e-16 -2.2985e-16 0)
(1.96128e-16 -8.45675e-17 0)
(1.40215e-16 0 0)
(9.11311e-19 -8.89043e-17 0)
(2.77082e-17 -2.34187e-16 0)
(-2.66295e-17 -9.75778e-18 0)
(-2.50474e-16 2.1684e-16 0)
(-2.47973e-16 3.06828e-16 0)
(-6.19549e-17 1.22514e-16 0)
(1.11488e-16 0 0)
(1.95563e-16 -1.37693e-16 0)
(3.69677e-16 -2.23345e-16 0)
(2.05647e-16 -6.93887e-17 0)
(-9.79539e-17 -9.32411e-17 0)
(-2.64208e-16 1.14925e-16 0)
(-3.33141e-16 1.97324e-16 0)
(-4.85721e-16 2.11419e-16 0)
(4.03322e-16 -6.50519e-18 0)
(1.4142e-16 2.55871e-16 0)
(-1.74914e-16 2.25513e-16 0)
(-1.16603e-16 4.07659e-16 0)
(1.3907e-16 2.94902e-16 0)
(3.8051e-16 5.31257e-16 0)
(2.99644e-16 3.44775e-16 0)
(4.66195e-20 1.23599e-16 0)
(-9.84384e-17 1.97324e-16 0)
(-1.04821e-16 -1.0842e-17 0)
(-2.90538e-16 -2.75386e-16 0)
(-5.03794e-17 -3.90311e-17 0)
(-1.96515e-16 2.40692e-16 0)
(-1.79717e-17 4.4669e-16 0)
(2.18836e-16 2.12503e-16 0)
(9.27661e-17 -3.68627e-17 0)
(4.88357e-17 1.69135e-16 0)
(-2.21866e-16 4.35848e-16 0)
(-4.04522e-17 2.60208e-16 0)
(7.11286e-17 4.25006e-16 0)
(-1.61783e-16 2.12503e-16 0)
(-1.30386e-16 6.28835e-17 0)
(1.45583e-16 2.62376e-16 0)
(3.05586e-16 5.94141e-16 0)
(-5.10497e-17 3.75133e-16 0)
(-4.19135e-16 2.27682e-16 0)
(-2.02732e-16 2.81892e-17 0)
(-4.07646e-17 6.50519e-17 0)
(-2.25464e-16 1.0842e-16 0)
(-6.80475e-17 -1.0842e-16 0)
(1.51796e-16 0 0)
(1.09545e-16 0 0)
(2.12115e-16 2.03829e-16 0)
(-1.11108e-17 4.31511e-16 0)
(-1.89068e-16 2.47197e-16 0)
(1.7762e-14 1.01915e-16 0)
(2.83965e-10 -1.61546e-15 0)
(4.21497e-07 3.2938e-15 0)
(7.40806e-05 -1.28507e-14 0)
(0.00225376 1.26116e-14 0)
(0.0184662 -1.23109e-14 0)
(0.0641387 1.11294e-14 0)
(0.136378 -2.12187e-14 0)
(0.223312 1.59633e-14 0)
(0.317368 -1.0129e-14 0)
(0.415457 2.31501e-15 0)
(0.516468 -2.52294e-15 0)
(0.620674 -1.51797e-15 0)
(0.726308 2.3931e-15 0)
(0.833231 -8.5778e-16 0)
(0.916024 2.58261e-15 0)
(0.948337 1.44416e-15 0)
(0.923038 2.00384e-15 0)
(0.924775 6.6494e-16 0)
(0.927095 2.08e-16 0)
(0.929752 -1.80391e-15 0)
(0.931805 -5.05147e-16 0)
(0.929188 -2.27763e-15 0)
(0.944766 -6.09054e-16 0)
(0.955511 -1.00431e-15 0)
(0.936907 -7.54647e-17 0)
(0.831769 -1.20341e-15 0)
(0.461978 9.67499e-17 0)
(0.0577242 -6.16751e-16 0)
(0.000653917 -3.35038e-15 0)
(4.93742e-07 -1.25333e-15 0)
(1.90486e-11 7.07981e-16 0)
(6.96153e-16 -1.22514e-16 0)
(6.47253e-18 0 0)
(-1.29897e-16 1.13841e-16 0)
(-5.03888e-17 3.25259e-17 0)
(7.50023e-19 1.33356e-16 0)
(1.04757e-16 3.25259e-17 0)
(1.16802e-17 -6.50519e-17 0)
(-9.11137e-17 3.79469e-17 0)
(2.66608e-17 1.45283e-16 0)
(1.95881e-16 1.34441e-16 0)
(9.54564e-17 0 0)
(-8.28206e-17 -8.13149e-17 0)
(-6.4844e-17 7.58939e-17 0)
(8.90803e-17 1.45283e-16 0)
(-6.52178e-21 4.33679e-17 0)
(5.83802e-17 6.28835e-17 0)
(1.87433e-16 -5.31257e-17 0)
(2.48542e-16 0 0)
(5.67568e-17 0 0)
(-1.11987e-16 -1.48535e-16 0)
(5.06118e-17 -5.09573e-17 0)
(1.54418e-16 0 0)
(-2.84643e-17 -1.40946e-17 0)
(-1.85331e-16 1.44198e-16 0)
(-1.30982e-16 2.05998e-17 0)
(5.70907e-17 6.93887e-17 0)
(1.45548e-16 1.37693e-16 0)
(2.75749e-16 6.50519e-17 0)
(1.26504e-16 -1.34441e-16 0)
(-1.76007e-16 -1.98408e-16 0)
(-3.37391e-16 -2.60208e-17 0)
(-2.93542e-16 7.58939e-18 0)
(-3.96817e-16 8.89043e-17 0)
(6.15825e-16 -2.27682e-16 0)
(2.49869e-16 -9.97462e-17 0)
(-1.50295e-16 -7.15571e-17 0)
(-1.56163e-16 1.47451e-16 0)
(1.81935e-16 1.14925e-16 0)
(4.75255e-16 2.25513e-16 0)
(1.42702e-16 -3.25259e-17 0)
(-7.66422e-17 -3.07912e-16 0)
(-3.2234e-16 -1.90819e-16 0)
(-4.32415e-16 -3.83806e-16 0)
(-8.65049e-17 -6.50519e-17 0)
(1.66751e-16 2.62376e-16 0)
(-2.4978e-17 7.80623e-17 0)
(-2.08893e-16 2.55871e-16 0)
(-2.90791e-17 -4.33679e-18 0)
(2.74583e-16 -4.33679e-17 0)
(1.76863e-16 -1.49619e-16 0)
(-6.78452e-18 3.03576e-17 0)
(1.23845e-18 4.33679e-18 0)
(1.95837e-17 4.33679e-17 0)
(-1.63243e-16 -1.36609e-16 0)
(-1.08647e-16 4.33679e-18 0)
(1.47954e-16 8.02307e-17 0)
(1.15356e-16 2.05998e-16 0)
(-2.25919e-16 8.67359e-18 0)
(-6.15725e-16 4.33679e-18 0)
(-2.44e-16 0 0)
(1.41798e-16 0 0)
(-4.17706e-17 -8.02307e-17 0)