/*--------------------------------*- C++ -*----------------------------------*\
| =========                 |                                                 |
| \\      /  F ield         | OpenFOAM: The Open Source CFD Toolbox           |
|  \\    /   O peration     | Version:  4.1                                   |
|   \\  /    A nd           | Web:      www.OpenFOAM.org                      |
|    \\/     M anipulation  |                                                 |
\*---------------------------------------------------------------------------*/
FoamFile
{
    version     2.0;
    format      ascii;
    class       volVectorField;
    location    "0.41";
    object      U;
}
// * * * * * * * * * * * * * * * * * * * * * * * * * * * * * * * * * * * * * //

dimensions      [0 1 -1 0 0 0 0];

internalField   nonuniform List<vector> 
10000
(
(0 0 0)
(2.0103e-16 0 0)
(3.12852e-16 0 0)
(1.02568e-16 1.58293e-16 0)
(-1.21158e-16 0 0)
(-3.09449e-16 0 0)
(-2.85933e-16 0 0)
(-5.73193e-17 0 0)
(-5.79935e-20 0 0)
(2.57308e-16 1.53956e-16 0)
(5.22867e-16 0 0)
(1.86437e-16 -1.56125e-16 0)
(-1.88835e-16 0 0)
(6.42812e-17 0 0)
(1.63692e-16 0 0)
(-5.43029e-17 1.34441e-16 0)
(-2.66174e-16 0 0)
(-1.57147e-16 0 0)
(1.05832e-16 0 0)
(1.55794e-12 -3.46943e-17 0)
(5.96139e-09 3.88143e-16 0)
(2.49213e-06 5.91323e-15 0)
(0.00016008 -3.03833e-15 0)
(0.00235142 1.52003e-14 0)
(0.012151 -2.74293e-15 0)
(0.0327394 -3.66754e-15 0)
(0.0611796 -1.40904e-14 0)
(0.0936818 4.38634e-15 0)
(0.128175 -3.13826e-15 0)
(0.163766 6.62788e-15 0)
(0.200056 2.10871e-14 0)
(0.236837 2.5434e-14 0)
(0.273985 1.82832e-14 0)
(0.311421 1.75323e-14 0)
(0.349093 -7.70292e-15 0)
(0.386968 4.50487e-14 0)
(0.425025 -1.40957e-14 0)
(0.463253 8.15102e-17 0)
(0.50165 -6.40917e-15 0)
(0.540216 7.31981e-15 0)
(0.578956 -2.87371e-15 0)
(0.617873 2.89425e-14 0)
(0.656966 4.05334e-14 0)
(0.696219 1.1206e-13 0)
(0.735594 4.6874e-14 0)
(0.775011 6.93861e-14 0)
(0.81427 6.79779e-14 0)
(0.85286 -3.69854e-14 0)
(0.889189 -4.84633e-14 0)
(0.91887 1.49544e-13 0)
(0.933756 4.79406e-14 0)
(0.93348 2.75317e-14 0)
(0.925458 1.50167e-14 0)
(0.92673 -9.04698e-16 0)
(0.927553 -4.07443e-16 0)
(0.927788 3.42187e-15 0)
(0.927981 7.75881e-15 0)
(0.928164 1.44207e-14 0)
(0.92843 1.74003e-14 0)
(0.928515 1.19528e-14 0)
(0.928285 1.08379e-14 0)
(0.928147 1.0992e-14 0)
(0.928153 9.46127e-15 0)
(0.928153 9.54741e-15 0)
(0.928104 3.52157e-15 0)
(0.92805 3.68493e-15 0)
(0.928077 4.97369e-15 0)
(0.928311 -2.85005e-15 0)
(0.92869 8.81829e-15 0)
(0.928954 -4.85408e-15 0)
(0.930186 -1.64318e-14 0)
(0.928525 -1.73036e-14 0)
(0.923991 -1.37472e-14 0)
(0.925863 -9.99361e-15 0)
(0.926911 -6.84777e-15 0)
(0.927899 -5.62698e-15 0)
(0.929024 -5.18981e-15 0)
(0.929258 -6.76699e-15 0)
(0.928565 -5.65078e-15 0)
(0.927482 -3.87188e-15 0)
(0.926369 -5.70498e-15 0)
(0.925596 -5.38884e-15 0)
(0.924674 -5.41133e-15 0)
(0.921018 -5.55717e-15 0)
(0.898944 -6.01698e-15 0)
(0.780257 -5.64337e-15 0)
(0.397917 -2.30172e-15 0)
(0.0412838 6.34422e-16 0)
(0.00038535 1.30059e-17 0)
(2.38174e-07 2.39608e-16 0)
(8.03777e-12 -2.1684e-17 0)
(-2.29306e-16 2.7105e-17 0)
(-2.59981e-16 1.23599e-16 0)
(8.74888e-18 0 0)
(2.34204e-16 0 0)
(-9.0514e-18 0 0)
(-2.7669e-16 2.08166e-16 0)
(-3.6237e-16 1.99492e-16 0)
(-3.26369e-16 1.32272e-16 0)
(-1.95156e-16 2.02745e-16 0)
(0 0 0)
(2.322e-16 0 0)
(3.18255e-16 1.38777e-16 0)
(1.03112e-16 3.42607e-16 0)
(-1.19867e-16 1.27935e-16 0)
(-3.23691e-16 2.68881e-16 0)
(-3.28908e-16 5.20415e-17 0)
(-6.45922e-17 0 0)
(-7.59865e-19 0 0)
(2.50751e-16 0 0)
(5.54482e-16 0 0)
(1.9471e-16 0 0)
(-1.65822e-16 0 0)
(7.55499e-17 0 0)
(1.62659e-16 1.30104e-16 0)
(-6.2678e-17 3.18754e-16 0)
(-2.72658e-16 1.27935e-16 0)
(-1.63096e-16 0 0)
(8.35928e-17 0 0)
(1.55795e-12 8.02307e-17 0)
(5.96139e-09 1.37043e-15 0)
(2.49213e-06 1.01373e-14 0)
(0.00016008 -4.67136e-15 0)
(0.00235142 2.94555e-14 0)
(0.012151 -3.7069e-15 0)
(0.0327394 -1.81337e-14 0)
(0.0611796 -3.78272e-15 0)
(0.0936818 2.46786e-14 0)
(0.128175 -2.61925e-15 0)
(0.163766 -3.54851e-15 0)
(0.200056 3.14684e-14 0)
(0.236837 8.43146e-15 0)
(0.273985 1.05408e-14 0)
(0.311421 1.62818e-14 0)
(0.349093 1.82542e-15 0)
(0.386968 3.08126e-14 0)
(0.425025 -1.21861e-14 0)
(0.463253 2.14616e-14 0)
(0.50165 1.00402e-14 0)
(0.540216 6.90499e-15 0)
(0.578956 5.38355e-15 0)
(0.617873 3.54114e-14 0)
(0.656966 3.25223e-14 0)
(0.696219 5.13562e-14 0)
(0.735594 1.56773e-14 0)
(0.775011 5.76425e-14 0)
(0.81427 3.79915e-14 0)
(0.85286 2.55769e-14 0)
(0.889189 -1.38575e-14 0)
(0.91887 7.45963e-14 0)
(0.933756 3.96251e-14 0)
(0.93348 2.85525e-14 0)
(0.925458 1.72351e-14 0)
(0.92673 7.26714e-15 0)
(0.927553 5.45802e-15 0)
(0.927788 1.00369e-14 0)
(0.927981 9.89616e-15 0)
(0.928164 8.87174e-15 0)
(0.92843 4.9624e-15 0)
(0.928515 8.74358e-15 0)
(0.928285 1.22894e-14 0)
(0.928147 1.19265e-14 0)
(0.928153 1.08989e-14 0)
(0.928153 1.16561e-14 0)
(0.928104 6.26743e-15 0)
(0.92805 7.30321e-15 0)
(0.928077 -1.76826e-16 0)
(0.928311 3.31542e-15 0)
(0.92869 2.51557e-15 0)
(0.928954 1.87294e-15 0)
(0.930186 -2.18469e-15 0)
(0.928525 -8.50309e-15 0)
(0.923991 -1.13339e-14 0)
(0.925863 -9.38836e-15 0)
(0.926911 -5.90566e-15 0)
(0.927899 -2.26158e-15 0)
(0.929024 -1.26925e-15 0)
(0.929258 -1.98384e-15 0)
(0.928565 8.69706e-16 0)
(0.927482 1.98865e-15 0)
(0.926369 1.80427e-15 0)
(0.925596 1.56657e-15 0)
(0.924674 1.97194e-15 0)
(0.921018 -2.88245e-16 0)
(0.898944 -7.15064e-17 0)
(0.780257 -2.80155e-15 0)
(0.397917 -6.66086e-15 0)
(0.0412838 2.99832e-15 0)
(0.00038535 -1.08816e-15 0)
(2.38174e-07 5.54025e-16 0)
(8.03799e-12 -3.23091e-16 0)
(-6.74462e-17 2.28766e-16 0)
(-2.02649e-16 3.28512e-16 0)
(-1.40284e-17 1.38777e-16 0)
(1.9667e-16 2.1684e-17 0)
(-4.22523e-17 8.34833e-17 0)
(-3.07343e-16 3.42607e-16 0)
(-4.16587e-16 4.02238e-16 0)
(-4.34538e-16 3.16586e-16 0)
(-4.00069e-16 4.07659e-16 0)
(0 0 0)
(2.60601e-16 0 0)
(5.2493e-16 0 0)
(1.1367e-16 1.06251e-16 0)
(-3.53917e-16 3.44775e-16 0)
(-3.25448e-16 5.94141e-16 0)
(-3.51921e-16 2.75386e-16 0)
(-5.29961e-17 0 0)
(-5.88943e-18 0 0)
(2.53154e-16 0 0)
(5.81156e-16 0 0)
(2.15228e-16 2.1684e-18 0)
(-1.40395e-16 9.54094e-17 0)
(8.68729e-17 3.20923e-16 0)
(3.25155e-16 1.97324e-16 0)
(-4.31398e-17 9.32411e-17 0)
(-4.11645e-16 0 0)
(-1.85101e-16 0 0)
(7.12258e-17 1.10588e-16 0)
(1.55834e-12 8.84706e-16 0)
(5.9614e-09 5.29956e-15 0)
(2.49213e-06 4.1243e-15 0)
(0.00016008 2.92339e-15 0)
(0.00235142 2.82931e-14 0)
(0.012151 1.48276e-14 0)
(0.0327394 -2.28458e-14 0)
(0.0611796 5.82485e-17 0)
(0.0936818 2.96227e-14 0)
(0.128175 -2.12444e-15 0)
(0.163766 -1.08352e-14 0)
(0.200056 3.27614e-14 0)
(0.236837 3.91047e-15 0)
(0.273985 9.66389e-15 0)
(0.311421 1.46107e-14 0)
(0.349093 4.08294e-15 0)
(0.386968 2.72373e-14 0)
(0.425025 -9.9271e-15 0)
(0.463253 2.55763e-14 0)
(0.50165 1.53736e-14 0)
(0.540216 2.57471e-15 0)
(0.578956 9.14015e-15 0)
(0.617873 3.57108e-14 0)
(0.656966 2.91789e-14 0)
(0.696219 2.78755e-14 0)
(0.735594 8.35892e-15 0)
(0.775011 4.74898e-14 0)
(0.81427 2.25282e-14 0)
(0.85286 3.65698e-14 0)
(0.889189 -2.37487e-15 0)
(0.91887 5.08457e-14 0)
(0.933756 2.74787e-14 0)
(0.93348 1.95431e-14 0)
(0.925458 1.25945e-14 0)
(0.92673 1.45597e-14 0)
(0.927553 5.7341e-15 0)
(0.927788 7.45964e-15 0)
(0.927981 6.08977e-15 0)
(0.928164 6.69357e-15 0)
(0.92843 1.40256e-15 0)
(0.928515 4.23255e-15 0)
(0.928285 1.05849e-14 0)
(0.928147 1.0706e-14 0)
(0.928153 1.04538e-14 0)
(0.928153 1.23182e-14 0)
(0.928104 7.17243e-15 0)
(0.92805 9.11888e-15 0)
(0.928077 -6.2748e-16 0)
(0.928311 5.07298e-15 0)
(0.92869 -1.60353e-15 0)
(0.928954 3.17937e-15 0)
(0.930186 3.08274e-16 0)
(0.928525 -1.85093e-15 0)
(0.923991 -6.22092e-15 0)
(0.925863 -5.77793e-15 0)
(0.926911 -3.53033e-15 0)
(0.927899 -1.56302e-15 0)
(0.929024 1.37027e-15 0)
(0.929258 4.1357e-15 0)
(0.928565 4.88858e-15 0)
(0.927482 7.81232e-15 0)
(0.926369 7.58958e-15 0)
(0.925596 5.27629e-15 0)
(0.924674 6.05347e-15 0)
(0.921018 4.29905e-15 0)
(0.898944 2.9422e-15 0)
(0.780257 4.6012e-17 0)
(0.397917 -5.65297e-15 0)
(0.0412838 8.69765e-15 0)
(0.00038535 -3.34685e-15 0)
(2.38174e-07 7.39423e-16 0)
(8.03898e-12 7.69781e-17 0)
(8.3632e-17 4.36932e-16 0)
(-1.72229e-16 5.35594e-16 0)
(-7.54894e-17 4.09827e-16 0)
(9.79424e-17 3.02491e-16 0)
(-1.63484e-17 1.85398e-16 0)
(-2.59089e-16 3.94648e-16 0)
(-4.72833e-16 6.06067e-16 0)
(-5.4621e-16 5.11742e-16 0)
(-6.09319e-16 6.1474e-16 0)
(-2.1684e-18 -2.1684e-18 0)
(2.65364e-16 -2.1684e-18 0)
(5.66282e-16 -2.1684e-18 0)
(1.61931e-16 3.90311e-17 0)
(-3.11818e-16 2.86228e-16 0)
(-6.9449e-16 2.21176e-16 0)
(-3.79041e-16 -2.1684e-18 0)
(-2.54056e-17 -2.1684e-18 0)
(-2.05258e-17 0 0)
(1.79087e-16 0 0)
(4.18571e-16 -4.33679e-18 0)
(2.45815e-16 -4.77047e-17 0)
(1.27605e-16 3.12249e-16 0)
(1.73317e-16 6.63529e-16 0)
(2.90103e-16 4.07659e-16 0)
(-5.95716e-17 3.46943e-17 0)
(-4.09334e-16 -2.1684e-18 0)
(-2.80867e-16 1.17093e-16 0)
(1.20862e-16 3.66459e-16 0)
(1.55987e-12 1.02999e-15 0)
(5.9614e-09 5.61615e-15 0)
(2.49213e-06 1.85398e-15 0)
(0.00016008 2.43761e-15 0)
(0.00235142 1.91134e-14 0)
(0.012151 2.84743e-14 0)
(0.0327394 -2.96379e-14 0)
(0.0611796 -3.49262e-15 0)
(0.0936818 3.19363e-14 0)
(0.128175 8.78326e-16 0)
(0.163766 -1.49215e-14 0)
(0.200056 2.9923e-14 0)
(0.236837 3.45558e-15 0)
(0.273985 7.76162e-15 0)
(0.311421 1.44842e-14 0)
(0.349093 2.89392e-15 0)
(0.386968 2.31479e-14 0)
(0.425025 -1.00987e-14 0)
(0.463253 2.71674e-14 0)
(0.50165 2.01158e-14 0)
(0.540216 -2.31041e-15 0)
(0.578956 1.41208e-14 0)
(0.617873 3.08512e-14 0)
(0.656966 2.30997e-14 0)
(0.696219 1.46719e-14 0)
(0.735594 5.35004e-15 0)
(0.775011 3.96578e-14 0)
(0.81427 1.71494e-14 0)
(0.85286 4.07442e-14 0)
(0.889189 -3.55741e-15 0)
(0.91887 3.49178e-14 0)
(0.933756 2.23675e-14 0)
(0.93348 1.85932e-14 0)
(0.925458 1.61517e-14 0)
(0.92673 1.02606e-14 0)
(0.927553 7.18576e-15 0)
(0.927788 5.92559e-15 0)
(0.927981 4.30716e-15 0)
(0.928164 9.21022e-15 0)
(0.92843 -5.09502e-16 0)
(0.928515 3.93118e-15 0)
(0.928285 8.19874e-15 0)
(0.928147 8.88243e-15 0)
(0.928153 1.33418e-14 0)
(0.928153 1.12657e-14 0)
(0.928104 4.51726e-15 0)
(0.92805 6.6481e-15 0)
(0.928077 1.32771e-15 0)
(0.928311 5.97038e-15 0)
(0.92869 -2.71008e-15 0)
(0.928954 3.87005e-15 0)
(0.930186 1.09188e-15 0)
(0.928525 1.33952e-15 0)
(0.923991 -2.27219e-15 0)
(0.925863 -1.68566e-15 0)
(0.926911 1.69189e-16 0)
(0.927899 -6.97016e-16 0)
(0.929024 6.15289e-15 0)
(0.929258 6.62972e-15 0)
(0.928565 5.55301e-15 0)
(0.927482 1.07078e-14 0)
(0.926369 1.01849e-14 0)
(0.925596 8.59002e-15 0)
(0.924674 7.45849e-15 0)
(0.921018 6.47525e-15 0)
(0.898944 4.43705e-15 0)
(0.780257 2.22871e-15 0)
(0.397917 -1.57114e-15 0)
(0.0412838 6.09506e-15 0)
(0.00038535 -2.45052e-15 0)
(2.38174e-07 1.42355e-15 0)
(8.03872e-12 -2.1684e-17 0)
(1.6252e-16 2.13587e-16 0)
(-2.40203e-16 4.34764e-16 0)
(-2.04903e-16 6.20161e-16 0)
(-1.02907e-16 5.96309e-16 0)
(-1.82447e-16 4.31511e-16 0)
(-1.58345e-16 2.93818e-16 0)
(-3.77552e-16 3.65375e-16 0)
(-6.89062e-16 2.73218e-16 0)
(-8.66274e-16 3.63206e-16 0)
(-2.1684e-18 2.1684e-18 0)
(2.64788e-16 2.1684e-18 0)
(5.93102e-16 2.1684e-18 0)
(1.58173e-16 1.64798e-16 0)
(-6.44524e-16 -1.60461e-16 0)
(-6.86098e-16 -5.44268e-16 0)
(-3.36056e-16 -2.40692e-16 0)
(9.55858e-18 2.1684e-18 0)
(-3.59676e-17 0 0)
(1.92938e-16 -2.1684e-18 0)
(4.40256e-16 1.06251e-16 0)
(2.60676e-16 2.90565e-16 0)
(3.45953e-16 1.2143e-16 0)
(1.66087e-16 2.9707e-16 0)
(2.71924e-16 1.12757e-16 0)
(-9.29137e-17 9.32411e-17 0)
(-4.5578e-16 2.1684e-18 0)
(-1.99357e-16 2.1684e-18 0)
(2.09787e-16 -4.33679e-18 0)
(1.5602e-12 4.35848e-16 0)
(5.96141e-09 2.39174e-15 0)
(2.49213e-06 2.89048e-15 0)
(0.00016008 -4.92943e-15 0)
(0.00235142 1.43464e-14 0)
(0.012151 3.29809e-14 0)
(0.0327394 -2.85366e-14 0)
(0.0611796 -4.42003e-16 0)
(0.0936818 3.02816e-14 0)
(0.128175 7.1984e-16 0)
(0.163766 -1.94819e-14 0)
(0.200056 2.5449e-14 0)
(0.236837 9.17764e-17 0)
(0.273985 5.69717e-15 0)
(0.311421 1.21296e-14 0)
(0.349093 -2.63084e-15 0)
(0.386968 1.97155e-14 0)
(0.425025 -1.26143e-14 0)
(0.463253 2.48818e-14 0)
(0.50165 2.22016e-14 0)
(0.540216 -5.23169e-15 0)
(0.578956 1.74936e-14 0)
(0.617873 2.40641e-14 0)
(0.656966 2.23427e-14 0)
(0.696219 7.92154e-15 0)
(0.735594 4.56017e-15 0)
(0.775011 3.36213e-14 0)
(0.81427 1.37431e-14 0)
(0.85286 3.43662e-14 0)
(0.889189 -2.1582e-15 0)
(0.91887 2.87926e-14 0)
(0.933756 1.63727e-14 0)
(0.93348 1.12802e-14 0)
(0.925458 1.28176e-14 0)
(0.92673 2.04741e-15 0)
(0.927553 6.77482e-15 0)
(0.927788 5.89887e-15 0)
(0.927981 3.63713e-15 0)
(0.928164 1.1961e-14 0)
(0.92843 -3.5328e-15 0)
(0.928515 3.93182e-15 0)
(0.928285 8.23306e-15 0)
(0.928147 9.08363e-15 0)
(0.928153 1.41987e-14 0)
(0.928153 6.96751e-15 0)
(0.928104 4.81989e-15 0)
(0.92805 2.54233e-15 0)
(0.928077 1.23812e-15 0)
(0.928311 8.08158e-15 0)
(0.92869 -3.08876e-15 0)
(0.928954 4.43656e-15 0)
(0.930186 1.17218e-16 0)
(0.928525 5.63678e-15 0)
(0.923991 -3.04476e-15 0)
(0.925863 1.79005e-15 0)
(0.926911 4.92447e-15 0)
(0.927899 1.01393e-15 0)
(0.929024 8.38215e-15 0)
(0.929258 4.69607e-15 0)
(0.928565 4.66949e-15 0)
(0.927482 1.06008e-14 0)
(0.926369 1.18659e-14 0)
(0.925596 7.49209e-15 0)
(0.924674 6.4413e-15 0)
(0.921018 5.63359e-15 0)
(0.898944 4.74656e-15 0)
(0.780257 4.56726e-15 0)
(0.397917 1.30719e-15 0)
(0.0412838 3.30716e-15 0)
(0.00038535 1.12501e-15 0)
(2.38174e-07 -1.52872e-16 0)
(8.03947e-12 -3.35017e-16 0)
(3.08001e-16 -1.60461e-16 0)
(1.78142e-17 8.02307e-17 0)
(5.0746e-17 4.78131e-16 0)
(3.22459e-17 7.36171e-16 0)
(-1.98401e-16 6.52687e-16 0)
(-3.8299e-16 2.41776e-16 0)
(-6.07439e-16 -1.07336e-16 0)
(-8.57943e-16 -6.83045e-17 0)
(-1.04408e-15 -1.94071e-16 0)
(0 0 0)
(2.42562e-16 -1.0842e-17 0)
(3.16245e-16 -2.34187e-16 0)
(-1.3818e-16 -4.85721e-16 0)
(-7.00751e-16 -6.28835e-16 0)
(-3.92552e-16 -2.77555e-16 0)
(-5.2827e-17 -2.1684e-17 0)
(7.32517e-17 0 0)
(-3.88849e-17 0 0)
(2.0585e-16 7.80623e-17 0)
(4.6251e-16 3.75133e-16 0)
(2.59387e-16 5.6812e-16 0)
(-1.62103e-17 2.88397e-16 0)
(6.48378e-17 -7.15571e-17 0)
(3.01106e-16 -6.50519e-17 0)
(-5.71115e-17 -9.54094e-17 0)
(-4.14601e-16 0 0)
(-2.73421e-16 -1.01915e-16 0)
(3.31826e-17 -3.72964e-16 0)
(1.56151e-12 6.8955e-16 0)
(5.96141e-09 2.06431e-15 0)
(2.49213e-06 -7.13404e-16 0)
(0.00016008 -7.45162e-15 0)
(0.00235142 8.69521e-15 0)
(0.012151 2.76067e-14 0)
(0.0327394 -1.72129e-14 0)
(0.0611796 -6.30454e-15 0)
(0.0936818 2.57895e-14 0)
(0.128175 -1.35499e-16 0)
(0.163766 -1.71723e-14 0)
(0.200056 2.25952e-14 0)
(0.236837 -1.84484e-15 0)
(0.273985 6.42014e-15 0)
(0.311421 1.06944e-14 0)
(0.349093 -5.47185e-15 0)
(0.386968 1.58086e-14 0)
(0.425025 -1.18729e-14 0)
(0.463253 2.22474e-14 0)
(0.50165 2.09028e-14 0)
(0.540216 -7.27605e-15 0)
(0.578956 1.76243e-14 0)
(0.617873 1.69099e-14 0)
(0.656966 1.85989e-14 0)
(0.696219 3.5795e-15 0)
(0.735594 4.56439e-15 0)
(0.775011 2.57084e-14 0)
(0.81427 1.54281e-14 0)
(0.85286 2.31891e-14 0)
(0.889189 4.51471e-15 0)
(0.91887 2.58289e-14 0)
(0.933756 1.24669e-14 0)
(0.93348 9.20867e-15 0)
(0.925458 7.4812e-15 0)
(0.92673 4.48504e-15 0)
(0.927553 6.12946e-15 0)
(0.927788 4.70554e-15 0)
(0.927981 2.27989e-15 0)
(0.928164 1.06122e-14 0)
(0.92843 -4.617e-15 0)
(0.928515 2.69581e-15 0)
(0.928285 5.70514e-15 0)
(0.928147 8.39611e-15 0)
(0.928153 1.108e-14 0)
(0.928153 3.32367e-15 0)
(0.928104 4.83275e-15 0)
(0.92805 2.64493e-15 0)
(0.928077 5.22058e-17 0)
(0.928311 6.6805e-15 0)
(0.92869 -5.35277e-15 0)
(0.928954 4.11332e-15 0)
(0.930186 1.48138e-15 0)
(0.928525 4.60113e-15 0)
(0.923991 -3.60054e-15 0)
(0.925863 1.15137e-15 0)
(0.926911 5.92469e-15 0)
(0.927899 3.21233e-15 0)
(0.929024 6.87034e-15 0)
(0.929258 1.76256e-15 0)
(0.928565 2.57533e-15 0)
(0.927482 6.48178e-15 0)
(0.926369 9.41995e-15 0)
(0.925596 4.64956e-15 0)
(0.924674 5.65488e-15 0)
(0.921018 3.76359e-15 0)
(0.898944 1.97765e-15 0)
(0.780257 3.60676e-15 0)
(0.397917 -6.8659e-16 0)
(0.0412838 2.80884e-15 0)
(0.00038535 3.42488e-15 0)
(2.38174e-07 -1.38561e-15 0)
(8.03927e-12 3.25259e-16 0)
(2.8119e-16 -2.9707e-16 0)
(2.84722e-16 -1.79977e-16 0)
(3.73559e-16 1.53956e-16 0)
(1.37505e-16 4.69458e-16 0)
(-2.9603e-16 4.18501e-16 0)
(-6.13038e-16 1.0842e-18 0)
(-8.16154e-16 -2.61292e-16 0)
(-7.15663e-16 -2.4286e-16 0)
(-8.16401e-16 -3.46943e-16 0)
(4.55363e-17 0 0)
(2.77931e-16 -2.01661e-16 0)
(-1.04511e-17 -5.61615e-16 0)
(-1.83322e-16 -9.38916e-16 0)
(-3.53047e-16 -7.26413e-16 0)
(-4.62596e-17 -3.68627e-16 0)
(2.31682e-16 -4.33679e-18 0)
(1.79931e-16 3.03576e-17 0)
(-2.13357e-17 0 0)
(2.19716e-16 0 0)
(4.28714e-16 1.12757e-16 0)
(3.77595e-17 2.8406e-16 0)
(-2.8035e-16 1.95156e-17 0)
(-2.54413e-17 -5.20415e-17 0)
(2.32276e-16 0 0)
(-3.60501e-17 -9.32411e-17 0)
(-3.0184e-16 0 0)
(-3.90783e-16 0 0)
(2.04572e-17 -1.19262e-16 0)
(1.56236e-12 9.97462e-17 0)
(5.96141e-09 5.29089e-16 0)
(2.49213e-06 -1.23816e-15 0)
(0.00016008 -5.69498e-15 0)
(0.00235142 5.86633e-15 0)
(0.012151 1.19532e-14 0)
(0.0327394 1.84269e-15 0)
(0.0611796 -1.15595e-14 0)
(0.0936818 2.41548e-14 0)
(0.128175 -2.88299e-15 0)
(0.163766 -1.12756e-14 0)
(0.200056 2.03234e-14 0)
(0.236837 -2.22392e-15 0)
(0.273985 6.56446e-15 0)
(0.311421 1.17175e-14 0)
(0.349093 -5.78196e-15 0)
(0.386968 1.20629e-14 0)
(0.425025 -6.91087e-15 0)
(0.463253 1.80659e-14 0)
(0.50165 1.68513e-14 0)
(0.540216 -6.01933e-15 0)
(0.578956 1.44901e-14 0)
(0.617873 1.35479e-14 0)
(0.656966 1.62782e-14 0)
(0.696219 3.43449e-15 0)
(0.735594 6.84237e-15 0)
(0.775011 1.79114e-14 0)
(0.81427 2.17903e-14 0)
(0.85286 1.13838e-14 0)
(0.889189 1.34156e-14 0)
(0.91887 2.14238e-14 0)
(0.933756 1.32433e-14 0)
(0.93348 1.12824e-14 0)
(0.925458 6.83989e-15 0)
(0.92673 6.17241e-15 0)
(0.927553 7.39282e-15 0)
(0.927788 4.27829e-15 0)
(0.927981 3.99473e-15 0)
(0.928164 8.4515e-15 0)
(0.92843 -1.02568e-15 0)
(0.928515 4.29581e-15 0)
(0.928285 3.72196e-15 0)
(0.928147 5.98805e-15 0)
(0.928153 6.89397e-15 0)
(0.928153 4.05116e-15 0)
(0.928104 4.2291e-15 0)
(0.92805 4.16948e-15 0)
(0.928077 1.57864e-15 0)
(0.928311 5.13789e-15 0)
(0.92869 -4.10418e-15 0)
(0.928954 2.52153e-15 0)
(0.930186 2.68956e-15 0)
(0.928525 2.22892e-15 0)
(0.923991 -1.0957e-15 0)
(0.925863 1.01973e-15 0)
(0.926911 3.20996e-15 0)
(0.927899 3.72238e-15 0)
(0.929024 4.02928e-15 0)
(0.929258 1.28927e-15 0)
(0.928565 1.42409e-15 0)
(0.927482 4.00953e-15 0)
(0.926369 4.71074e-15 0)
(0.925596 3.57517e-15 0)
(0.924674 3.91421e-15 0)
(0.921018 2.75525e-15 0)
(0.898944 1.92545e-15 0)
(0.780257 1.91352e-15 0)
(0.397917 3.03231e-16 0)
(0.0412838 9.35929e-16 0)
(0.00038535 9.79776e-16 0)
(2.38174e-07 -5.74625e-17 0)
(8.0383e-12 -3.03576e-17 0)
(2.87001e-16 -1.22514e-16 0)
(4.04627e-16 -9.8662e-17 0)
(4.95498e-16 0 0)
(2.03776e-16 0 0)
(-3.25424e-16 7.37255e-17 0)
(-6.70106e-16 9.32411e-17 0)
(-7.15272e-16 -6.17993e-17 0)
(-6.14777e-16 -3.68627e-17 0)
(-6.06067e-16 -1.36609e-16 0)
(4.07659e-16 1.99492e-16 0)
(3.91459e-16 0 0)
(-1.96403e-17 -2.2985e-16 0)
(-1.35695e-16 -5.83299e-16 0)
(-8.20208e-17 -3.40438e-16 0)
(1.0257e-16 -3.46943e-17 0)
(4.23766e-16 2.40692e-16 0)
(2.211e-16 4.44521e-16 0)
(1.15774e-17 2.88397e-16 0)
(2.67143e-16 8.89043e-17 0)
(4.38186e-16 0 0)
(6.88903e-17 0 0)
(-2.98968e-16 0 0)
(-8.13242e-18 -7.37255e-17 0)
(2.40157e-16 0 0)
(-5.54753e-17 9.32411e-17 0)
(-3.64955e-16 9.54094e-17 0)
(-5.44091e-16 0 0)
(-9.08784e-17 0 0)
(1.56237e-12 -1.34441e-16 0)
(5.96141e-09 -6.96055e-16 0)
(2.49213e-06 -2.88397e-16 0)
(0.00016008 -4.27883e-15 0)
(0.00235142 5.47742e-15 0)
(0.012151 -6.58346e-15 0)
(0.0327394 1.65552e-14 0)
(0.0611796 -1.34714e-14 0)
(0.0936818 2.05447e-14 0)
(0.128175 -5.40424e-15 0)
(0.163766 -7.28543e-15 0)
(0.200056 1.73485e-14 0)
(0.236837 -4.90671e-15 0)
(0.273985 6.61119e-15 0)
(0.311421 1.28501e-14 0)
(0.349093 -6.15087e-15 0)
(0.386968 8.49358e-15 0)
(0.425025 -2.93122e-15 0)
(0.463253 1.34867e-14 0)
(0.50165 1.1143e-14 0)
(0.540216 -3.43061e-15 0)
(0.578956 1.14685e-14 0)
(0.617873 1.02715e-14 0)
(0.656966 1.36635e-14 0)
(0.696219 4.39274e-15 0)
(0.735594 8.27045e-15 0)
(0.775011 9.93059e-15 0)
(0.81427 2.5823e-14 0)
(0.85286 6.29414e-16 0)
(0.889189 2.02892e-14 0)
(0.91887 2.13267e-14 0)
(0.933756 1.34337e-14 0)
(0.93348 1.1362e-14 0)
(0.925458 7.37934e-15 0)
(0.92673 7.65292e-15 0)
(0.927553 6.90268e-15 0)
(0.927788 4.00755e-15 0)
(0.927981 5.94311e-15 0)
(0.928164 7.47455e-15 0)
(0.92843 7.2895e-16 0)
(0.928515 5.14906e-15 0)
(0.928285 3.62217e-15 0)
(0.928147 5.34217e-15 0)
(0.928153 5.06014e-15 0)
(0.928153 4.48019e-15 0)
(0.928104 2.2493e-15 0)
(0.92805 3.80157e-15 0)
(0.928077 1.08824e-15 0)
(0.928311 5.71216e-15 0)
(0.92869 -1.38184e-15 0)
(0.928954 3.70969e-15 0)
(0.930186 6.89464e-16 0)
(0.928525 -9.34851e-16 0)
(0.923991 1.25881e-15 0)
(0.925863 1.50979e-15 0)
(0.926911 1.59932e-15 0)
(0.927899 3.07776e-15 0)
(0.929024 1.81592e-15 0)
(0.929258 1.47725e-15 0)
(0.928565 1.79162e-15 0)
(0.927482 1.79316e-15 0)
(0.926369 9.45116e-16 0)
(0.925596 1.34708e-15 0)
(0.924674 7.27582e-16 0)
(0.921018 2.05618e-15 0)
(0.898944 1.44787e-15 0)
(0.780257 -1.9095e-16 0)
(0.397917 1.77618e-15 0)
(0.0412838 -1.20708e-15 0)
(0.00038535 -4.59541e-16 0)
(2.38174e-07 5.95225e-16 0)
(8.03912e-12 -3.37186e-16 0)
(3.60366e-16 -1.0842e-18 0)
(4.8073e-16 -1.0842e-17 0)
(6.02521e-16 -1.9624e-16 0)
(3.98662e-16 -3.50196e-16 0)
(-1.09015e-17 -9.64936e-17 0)
(-5.89362e-16 2.26597e-16 0)
(-8.79911e-16 1.94071e-16 0)
(-7.79185e-16 2.94902e-16 0)
(-7.2316e-16 2.21176e-16 0)
(7.95802e-16 4.87889e-16 0)
(5.30148e-16 1.84314e-16 0)
(-3.68526e-17 1.27935e-16 0)
(-3.01899e-16 -2.21176e-16 0)
(-1.39954e-16 2.1684e-18 0)
(2.93073e-16 1.2143e-16 0)
(4.88979e-16 5.59446e-16 0)
(2.23501e-16 8.26159e-16 0)
(2.09928e-17 6.2233e-16 0)
(2.79158e-16 3.3827e-16 0)
(3.75583e-16 1.53956e-16 0)
(7.20227e-17 -1.53956e-16 0)
(-2.3638e-16 -7.80623e-17 0)
(-8.67479e-18 -2.58039e-16 0)
(2.44665e-16 -4.11995e-17 0)
(-9.0407e-17 4.11995e-17 0)
(-3.99469e-16 3.5128e-16 0)
(-5.4587e-16 1.69135e-16 0)
(-1.91945e-16 0 0)
(1.56164e-12 -8.84706e-16 0)
(5.96141e-09 -3.74482e-15 0)
(2.49213e-06 -3.64942e-15 0)
(0.00016008 2.70002e-15 0)
(0.00235142 3.13523e-15 0)
(0.012151 -2.23619e-14 0)
(0.0327394 2.39003e-14 0)
(0.0611796 -1.42583e-14 0)
(0.0936818 1.69018e-14 0)
(0.128175 -7.42222e-15 0)
(0.163766 -3.34888e-15 0)
(0.200056 1.66608e-14 0)
(0.236837 -6.65313e-15 0)
(0.273985 8.10387e-15 0)
(0.311421 1.43848e-14 0)
(0.349093 -4.6826e-15 0)
(0.386968 6.88459e-15 0)
(0.425025 2.089e-15 0)
(0.463253 1.05996e-14 0)
(0.50165 3.56009e-15 0)
(0.540216 -1.55953e-15 0)
(0.578956 9.18733e-15 0)
(0.617873 7.20502e-15 0)
(0.656966 1.2006e-14 0)
(0.696219 6.5232e-15 0)
(0.735594 9.70485e-15 0)
(0.775011 2.19488e-15 0)
(0.81427 2.65165e-14 0)
(0.85286 -6.36971e-15 0)
(0.889189 2.12943e-14 0)
(0.91887 2.09989e-14 0)
(0.933756 1.33166e-14 0)
(0.93348 1.22774e-14 0)
(0.925458 9.85096e-15 0)
(0.92673 1.00597e-14 0)
(0.927553 5.21343e-15 0)
(0.927788 2.83491e-15 0)
(0.927981 6.89184e-15 0)
(0.928164 5.0772e-15 0)
(0.92843 1.53932e-15 0)
(0.928515 6.94903e-15 0)
(0.928285 4.77648e-15 0)
(0.928147 6.31926e-15 0)
(0.928153 2.81582e-15 0)
(0.928153 5.49561e-15 0)
(0.928104 1.97819e-15 0)
(0.92805 3.50163e-15 0)
(0.928077 8.86824e-16 0)
(0.928311 4.30646e-15 0)
(0.92869 3.3541e-16 0)
(0.928954 3.15749e-15 0)
(0.930186 2.93968e-16 0)
(0.928525 -8.44923e-16 0)
(0.923991 5.36144e-15 0)
(0.925863 3.15328e-15 0)
(0.926911 1.35659e-15 0)
(0.927899 3.14864e-15 0)
(0.929024 4.94878e-16 0)
(0.929258 1.46035e-15 0)
(0.928565 1.49677e-15 0)
(0.927482 -5.83903e-16 0)
(0.926369 -1.51208e-15 0)
(0.925596 -1.02732e-15 0)
(0.924674 -2.30503e-15 0)
(0.921018 4.65192e-16 0)
(0.898944 -1.71093e-15 0)
(0.780257 -3.1524e-15 0)
(0.397917 3.54057e-15 0)
(0.0412838 -4.84924e-15 0)
(0.00038535 -2.27603e-16 0)
(2.38174e-07 1.56016e-15 0)
(8.03919e-12 2.85144e-16 0)
(2.85014e-16 7.37255e-17 0)
(4.34226e-16 7.26413e-17 0)
(5.86669e-16 -3.95732e-16 0)
(4.11418e-16 -5.96309e-16 0)
(1.34549e-16 -3.19838e-16 0)
(-4.21152e-16 7.58939e-17 0)
(-8.3333e-16 3.96817e-16 0)
(-8.70388e-16 5.43183e-16 0)
(-9.72526e-16 4.69458e-16 0)
(1.02782e-15 2.40692e-16 0)
(6.02871e-16 1.04083e-16 0)
(-3.09136e-17 1.34441e-16 0)
(-3.24168e-16 2.66713e-16 0)
(3.01474e-18 1.06251e-16 0)
(4.03515e-16 2.73218e-16 0)
(6.73473e-16 3.77301e-16 0)
(2.93432e-16 4.79216e-16 0)
(-1.61567e-16 4.42353e-16 0)
(3.03093e-16 2.58039e-16 0)
(3.33018e-18 -4.33679e-17 0)
(-1.59985e-16 -2.60208e-16 0)
(-2.2326e-16 -1.73472e-17 0)
(-2.36127e-17 1.06251e-16 0)
(2.59831e-16 3.03576e-17 0)
(1.00448e-16 -1.51788e-16 0)
(-2.29891e-16 1.32272e-16 0)
(-6.04684e-16 2.40692e-16 0)
(-2.07289e-16 9.32411e-17 0)
(1.5605e-12 -7.15571e-17 0)
(5.9614e-09 -2.53919e-15 0)
(2.49213e-06 -4.51461e-15 0)
(0.00016008 9.15621e-15 0)
(0.00235142 2.87233e-15 0)
(0.012151 -2.54794e-14 0)
(0.0327394 2.19239e-14 0)
(0.0611796 -7.66824e-15 0)
(0.0936818 1.00516e-14 0)
(0.128175 -6.10715e-15 0)
(0.163766 -5.05326e-16 0)
(0.200056 1.25461e-14 0)
(0.236837 -8.34634e-15 0)
(0.273985 8.43649e-15 0)
(0.311421 1.2941e-14 0)
(0.349093 -3.76548e-15 0)
(0.386968 6.30213e-15 0)
(0.425025 4.58574e-15 0)
(0.463253 9.79101e-15 0)
(0.50165 -4.3606e-15 0)
(0.540216 3.28184e-15 0)
(0.578956 7.36257e-15 0)
(0.617873 3.18791e-15 0)
(0.656966 9.19398e-15 0)
(0.696219 6.92374e-15 0)
(0.735594 1.03873e-14 0)
(0.775011 7.1558e-16 0)
(0.81427 2.30114e-14 0)
(0.85286 -1.00942e-14 0)
(0.889189 2.16836e-14 0)
(0.91887 1.32064e-14 0)
(0.933756 1.41209e-14 0)
(0.93348 1.42971e-14 0)
(0.925458 1.21141e-14 0)
(0.92673 7.99103e-15 0)
(0.927553 7.29772e-15 0)
(0.927788 4.08041e-15 0)
(0.927981 7.43111e-15 0)
(0.928164 1.85719e-15 0)
(0.92843 2.81657e-15 0)
(0.928515 6.9646e-15 0)
(0.928285 5.9667e-15 0)
(0.928147 5.30467e-15 0)
(0.928153 1.78705e-15 0)
(0.928153 4.43039e-15 0)
(0.928104 2.09204e-15 0)
(0.92805 3.2128e-15 0)
(0.928077 9.89552e-16 0)
(0.928311 1.58092e-15 0)
(0.92869 1.2597e-16 0)
(0.928954 2.23911e-15 0)
(0.930186 1.77858e-15 0)
(0.928525 -1.71949e-15 0)
(0.923991 4.34396e-15 0)
(0.925863 3.56929e-15 0)
(0.926911 9.60621e-16 0)
(0.927899 2.97503e-15 0)
(0.929024 3.07183e-16 0)
(0.929258 2.63642e-15 0)
(0.928565 1.28843e-15 0)
(0.927482 -7.98325e-16 0)
(0.926369 -1.40974e-15 0)
(0.925596 -1.43815e-15 0)
(0.924674 -2.52044e-15 0)
(0.921018 -2.01669e-15 0)
(0.898944 -2.92237e-15 0)
(0.780257 -2.97295e-15 0)
(0.397917 2.52483e-15 0)
(0.0412838 -4.76235e-15 0)
(0.00038535 1.43498e-15 0)
(2.38174e-07 9.88789e-16 0)
(8.03884e-12 7.75202e-16 0)
(2.90411e-16 2.24429e-16 0)
(1.62133e-16 1.07336e-16 0)
(3.21473e-16 -1.8323e-16 0)
(5.36004e-16 -3.68627e-16 0)
(2.66151e-16 -2.19008e-16 0)
(-2.62149e-16 -1.27935e-16 0)
(-6.57114e-16 2.20092e-16 0)
(-9.3281e-16 3.39354e-16 0)
(-1.16009e-15 3.39354e-16 0)
(8.13149e-16 -2.1684e-18 0)
(4.85993e-16 2.55871e-16 0)
(4.2822e-17 3.10081e-16 0)
(-5.15663e-18 5.8113e-16 0)
(2.00929e-16 3.83806e-16 0)
(4.11814e-16 5.5511e-16 0)
(4.18731e-16 3.79469e-16 0)
(1.6768e-16 1.32272e-16 0)
(9.06778e-17 1.97324e-16 0)
(-9.46523e-17 -1.34441e-16 0)
(-3.25391e-16 -3.83806e-16 0)
(-6.84854e-17 -1.30104e-16 0)
(-2.3047e-16 2.19008e-16 0)
(1.61703e-17 4.79216e-16 0)
(2.37797e-16 2.64544e-16 0)
(8.5864e-17 3.03576e-17 0)
(-1.3072e-16 1.27935e-16 0)
(-4.15651e-16 4.14164e-16 0)
(-1.13059e-16 2.92734e-16 0)
(1.5609e-12 9.25905e-16 0)
(5.9614e-09 1.58076e-15 0)
(2.49213e-06 -4.98732e-16 0)
(0.00016008 2.54387e-15 0)
(0.00235142 7.2069e-15 0)
(0.012151 -1.7656e-14 0)
(0.0327394 1.41942e-14 0)
(0.0611796 3.24364e-16 0)
(0.0936818 1.59364e-15 0)
(0.128175 -6.20635e-16 0)
(0.163766 2.25712e-15 0)
(0.200056 7.5725e-15 0)
(0.236837 -8.59506e-15 0)
(0.273985 6.84623e-15 0)
(0.311421 1.21851e-14 0)
(0.349093 -8.68617e-16 0)
(0.386968 3.29402e-15 0)
(0.425025 5.98208e-15 0)
(0.463253 9.98337e-15 0)
(0.50165 -7.54238e-15 0)
(0.540216 7.75039e-15 0)
(0.578956 5.86265e-15 0)
(0.617873 4.42372e-16 0)
(0.656966 5.90239e-15 0)
(0.696219 4.56716e-15 0)
(0.735594 1.11129e-14 0)
(0.775011 2.15331e-15 0)
(0.81427 1.86285e-14 0)
(0.85286 -1.51992e-14 0)
(0.889189 2.20288e-14 0)
(0.91887 1.2456e-14 0)
(0.933756 1.21e-14 0)
(0.93348 1.21005e-14 0)
(0.925458 1.0299e-14 0)
(0.92673 5.95696e-15 0)
(0.927553 5.97583e-15 0)
(0.927788 4.12272e-15 0)
(0.927981 6.10727e-15 0)
(0.928164 2.38908e-16 0)
(0.92843 8.3384e-15 0)
(0.928515 3.75856e-15 0)
(0.928285 4.79904e-15 0)
(0.928147 2.21926e-15 0)
(0.928153 4.3133e-15 0)
(0.928153 2.69897e-15 0)
(0.928104 8.16554e-16 0)
(0.92805 1.24977e-15 0)
(0.928077 3.06498e-15 0)
(0.928311 1.30389e-15 0)
(0.92869 6.60482e-16 0)
(0.928954 3.9597e-15 0)
(0.930186 3.13997e-15 0)
(0.928525 2.20866e-15 0)
(0.923991 1.98076e-15 0)
(0.925863 2.51512e-15 0)
(0.926911 2.22774e-15 0)
(0.927899 3.43782e-15 0)
(0.929024 3.09747e-15 0)
(0.929258 3.54562e-15 0)
(0.928565 1.14408e-15 0)
(0.927482 2.08383e-15 0)
(0.926369 1.34987e-15 0)
(0.925596 -3.9906e-17 0)
(0.924674 8.60614e-16 0)
(0.921018 -4.63653e-16 0)
(0.898944 -1.35549e-15 0)
(0.780257 -2.05846e-15 0)
(0.397917 -2.67566e-15 0)
(0.0412838 1.01445e-15 0)
(0.00038535 1.22472e-15 0)
(2.38174e-07 -1.27827e-15 0)
(8.03813e-12 5.93056e-16 0)
(1.65431e-16 1.50704e-16 0)
(7.48345e-17 2.86228e-16 0)
(2.0995e-16 3.05744e-16 0)
(3.29992e-16 1.17093e-16 0)
(6.36924e-17 -1.53956e-16 0)
(-3.32026e-16 -3.00323e-16 0)
(-6.2247e-16 -4.33679e-18 0)
(-8.56025e-16 8.99885e-17 0)
(-1.05709e-15 2.35271e-16 0)
(1.01047e-15 -2.1684e-16 0)
(6.01668e-16 -9.97462e-17 0)
(7.30761e-17 -4.55363e-17 0)
(-3.50034e-17 2.62376e-16 0)
(3.12625e-16 2.01661e-16 0)
(6.38737e-16 2.58039e-16 0)
(3.10545e-16 -6.50519e-17 0)
(1.34566e-16 -3.96817e-16 0)
(-1.71671e-16 -2.73218e-16 0)
(-4.23485e-16 -5.20415e-16 0)
(-8.12594e-17 -1.79977e-16 0)
(1.88205e-16 1.30104e-16 0)
(-4.68908e-17 3.46943e-17 0)
(-2.14951e-16 2.51534e-16 0)
(-4.23486e-17 -4.33679e-18 0)
(2.69754e-16 -8.45675e-17 0)
(1.54114e-16 -1.66967e-16 0)
(-7.45511e-17 2.38524e-17 0)
(-9.39248e-17 4.33679e-18 0)
(1.56188e-12 3.31765e-16 0)
(5.96141e-09 2.90782e-15 0)
(2.49213e-06 3.42607e-15 0)
(0.00016008 -5.49763e-15 0)
(0.00235142 7.83264e-15 0)
(0.012151 -1.3202e-14 0)
(0.0327394 9.24465e-15 0)
(0.0611796 2.72169e-15 0)
(0.0936818 -4.17612e-15 0)
(0.128175 5.12357e-15 0)
(0.163766 4.42441e-15 0)
(0.200056 2.93499e-15 0)
(0.236837 -6.86062e-15 0)