/*--------------------------------*- C++ -*----------------------------------*\
| =========                 |                                                 |
| \\      /  F ield         | OpenFOAM: The Open Source CFD Toolbox           |
|  \\    /   O peration     | Version:  4.1                                   |
|   \\  /    A nd           | Web:      www.OpenFOAM.org                      |
|    \\/     M anipulation  |                                                 |
\*---------------------------------------------------------------------------*/
FoamFile
{
    version     2.0;
    format      ascii;
    class       volVectorField;
    location    "0.3";
    object      U;
}
// * * * * * * * * * * * * * * * * * * * * * * * * * * * * * * * * * * * * * //

dimensions      [0 1 -1 0 0 0 0];

internalField   nonuniform List<vector> 
10000
(
(0 0 0)
(1.39711e-16 0 0)
(2.93782e-16 0 0)
(9.5801e-17 1.51788e-16 0)
(-1.21471e-16 0 0)
(-2.69278e-16 0 0)
(-2.43874e-16 0 0)
(-3.30145e-17 0 0)
(-7.82101e-23 0 0)
(2.18455e-16 1.45283e-16 0)
(4.70381e-16 0 0)
(1.42699e-16 -1.56125e-16 0)
(-2.36918e-16 0 0)
(3.1824e-17 0 0)
(1.58435e-16 0 0)
(-4.59346e-17 1.32272e-16 0)
(-2.51355e-16 0 0)
(-1.30185e-16 0 0)
(-2.94145e-17 0 0)
(-1.81974e-16 0 0)
(-2.28432e-19 0 0)
(1.3264e-16 1.17093e-16 0)
(3.34582e-17 0 0)
(7.05337e-17 0 0)
(-1.08694e-16 3.90311e-17 0)
(2.30434e-15 -7.58939e-17 0)
(4.82338e-11 -2.09033e-15 0)
(8.48062e-08 1.56558e-15 0)
(1.7987e-05 -9.25919e-16 0)
(0.000660848 4.29583e-15 0)
(0.00638977 7.76139e-15 0)
(0.0250674 2.55725e-15 0)
(0.0575302 9.30017e-15 0)
(0.0984643 3.78672e-15 0)
(0.143581 7.75294e-15 0)
(0.190836 1.00919e-14 0)
(0.239353 -1.60942e-14 0)
(0.288714 9.62087e-15 0)
(0.338696 -8.25561e-15 0)
(0.389173 1.59474e-14 0)
(0.440079 3.64912e-14 0)
(0.491388 5.61487e-14 0)
(0.5431 2.76934e-14 0)
(0.595228 1.83105e-14 0)
(0.647782 7.69994e-15 0)
(0.700723 2.27893e-14 0)
(0.753883 2.44415e-14 0)
(0.806801 3.85752e-14 0)
(0.857965 -2.0492e-14 0)
(0.903317 -2.96551e-14 0)
(0.932602 -5.0806e-15 0)
(0.937674 1.02492e-14 0)
(0.924832 1.25112e-14 0)
(0.926256 1.41153e-14 0)
(0.927393 1.07024e-14 0)
(0.927609 8.07698e-15 0)
(0.927812 6.67448e-15 0)
(0.92796 4.69502e-15 0)
(0.928238 4.37069e-15 0)
(0.928392 4.50265e-15 0)
(0.928174 5.25498e-15 0)
(0.927972 9.83339e-15 0)
(0.928162 4.08922e-15 0)
(0.928747 8.854e-15 0)
(0.928878 1.8833e-15 0)
(0.928966 -3.9617e-15 0)
(0.931209 -4.58809e-15 0)
(0.929871 -5.48638e-15 0)
(0.925916 -3.18108e-15 0)
(0.924832 -7.28317e-16 0)
(0.924829 -2.62015e-15 0)
(0.925884 -4.51081e-15 0)
(0.927887 -4.85754e-15 0)
(0.926931 -4.80719e-15 0)
(0.916572 -4.58609e-15 0)
(0.848325 -5.00413e-15 0)
(0.562958 -3.12925e-15 0)
(0.114137 -1.44917e-15 0)
(0.00242423 1.85328e-15 0)
(3.72761e-06 2.16839e-16 0)
(2.99766e-10 5.42099e-18 0)
(7.39478e-15 0 0)
(-1.33647e-16 0 0)
(7.11459e-17 1.6263e-17 0)
(2.69991e-16 1.0842e-16 0)
(8.72309e-17 0 0)
(-1.73503e-16 0 0)
(-7.96509e-17 0 0)
(-7.90397e-17 0 0)
(-1.88507e-16 0 0)
(-2.62184e-16 -6.50519e-18 0)
(-4.13241e-16 0 0)
(-2.16289e-16 9.43252e-17 0)
(5.38399e-17 0 0)
(2.64906e-16 0 0)
(3.38053e-17 0 0)
(-2.12767e-16 1.53956e-16 0)
(-2.78025e-16 1.0083e-16 0)
(-1.83519e-16 3.36101e-17 0)
(-5.20415e-17 1.11672e-16 0)
(0 0 0)
(1.85097e-16 0 0)
(3.03998e-16 1.38777e-16 0)
(9.90741e-17 3.36101e-16 0)
(-1.27122e-16 1.25767e-16 0)
(-3.15848e-16 2.47197e-16 0)
(-2.94697e-16 4.98731e-17 0)
(-3.64523e-17 0 0)
(-8.22205e-21 0 0)
(2.33126e-16 0 0)
(5.31729e-16 0 0)
(1.68089e-16 0 0)
(-1.9431e-16 0 0)
(5.694e-17 0 0)
(1.59943e-16 1.30104e-16 0)
(-5.04401e-17 3.16586e-16 0)
(-2.58675e-16 1.27935e-16 0)
(-1.54767e-16 0 0)
(-5.30058e-17 0 0)
(-2.18897e-16 0 0)
(-5.32891e-19 0 0)
(1.72841e-16 2.1684e-18 0)
(5.56378e-17 0 0)
(6.83549e-17 1.71303e-16 0)
(-1.71554e-16 3.55617e-16 0)
(2.17205e-15 1.73472e-16 0)
(4.82312e-11 -3.25259e-16 0)
(8.48062e-08 1.2143e-15 0)
(1.7987e-05 1.91472e-15 0)
(0.000660848 1.72701e-15 0)
(0.00638977 1.4376e-14 0)
(0.0250674 -1.23277e-14 0)
(0.0575302 1.28173e-14 0)
(0.0984643 9.43437e-17 0)
(0.143581 6.68006e-15 0)
(0.190836 2.57058e-15 0)
(0.239353 1.26653e-15 0)
(0.288714 1.52238e-14 0)
(0.338696 -9.86042e-15 0)
(0.389173 2.35294e-14 0)
(0.440079 2.3051e-14 0)
(0.491388 9.4585e-15 0)
(0.5431 2.50745e-14 0)
(0.595228 2.74298e-14 0)
(0.647782 1.80272e-14 0)
(0.700723 1.17934e-14 0)
(0.753883 1.53558e-14 0)
(0.806801 2.20386e-14 0)
(0.857965 -6.68424e-16 0)
(0.903317 -4.48326e-15 0)
(0.932602 1.98101e-15 0)
(0.937674 9.61174e-15 0)
(0.924832 9.83481e-15 0)
(0.926256 1.43108e-14 0)
(0.927393 6.76888e-15 0)
(0.927609 8.08873e-15 0)
(0.927812 6.16812e-15 0)
(0.92796 2.62817e-15 0)
(0.928238 4.50086e-15 0)
(0.928392 4.37699e-15 0)
(0.928174 7.19415e-15 0)
(0.927972 9.27345e-15 0)
(0.928162 5.92523e-15 0)
(0.928747 6.48432e-15 0)
(0.928878 6.29025e-15 0)
(0.928966 3.91367e-15 0)
(0.931209 5.06352e-16 0)
(0.929871 -6.00052e-15 0)
(0.925916 -4.64519e-16 0)
(0.924832 2.36175e-15 0)
(0.924829 -2.60675e-16 0)
(0.925884 1.27014e-16 0)
(0.927887 -1.79869e-15 0)
(0.926931 -2.98591e-15 0)
(0.916572 -2.97415e-15 0)
(0.848325 -2.35473e-15 0)
(0.562958 -1.83835e-15 0)
(0.114137 -1.98089e-15 0)
(0.00242423 4.50283e-15 0)
(3.72761e-06 5.82212e-16 0)
(2.99765e-10 3.3068e-16 0)
(7.43082e-15 2.49366e-17 0)
(-1.20491e-16 1.40946e-16 0)
(7.27449e-17 2.13587e-16 0)
(2.71755e-16 2.0925e-16 0)
(8.75707e-17 2.81892e-17 0)
(-1.73177e-16 0 0)
(-8.97376e-17 6.50519e-18 0)
(-1.17012e-16 0 0)
(-2.38298e-16 2.49366e-17 0)
(-1.68269e-16 2.27682e-17 0)
(-2.82736e-16 1.7564e-16 0)
(-1.64611e-16 2.95986e-16 0)
(2.39371e-17 1.07336e-16 0)
(2.34017e-16 0 0)
(8.55545e-18 3.36101e-17 0)
(-2.33287e-16 2.72134e-16 0)
(-3.44377e-16 3.02491e-16 0)
(-2.77629e-16 2.22261e-16 0)
(-2.55871e-16 3.15502e-16 0)
(0 0 0)
(2.50192e-16 0 0)
(5.28734e-16 0 0)
(1.17648e-16 1.01915e-16 0)
(-3.62402e-16 3.44775e-16 0)
(-3.26002e-16 5.6812e-16 0)
(-3.26501e-16 2.47197e-16 0)
(-2.81596e-17 0 0)
(-3.22859e-19 0 0)
(2.55259e-16 0 0)
(5.77792e-16 0 0)
(2.17374e-16 2.1684e-18 0)
(-1.46808e-16 5.42099e-17 0)
(8.12231e-17 2.77555e-16 0)
(3.23078e-16 1.45283e-16 0)
(-4.55065e-17 7.58939e-17 0)
(-4.15848e-16 0 0)
(-1.7129e-16 0 0)
(-8.92634e-17 1.01915e-16 0)
(-2.33296e-16 0 0)
(-1.62718e-19 0 0)
(2.29299e-16 0 0)
(8.9513e-17 1.32272e-16 0)
(1.46307e-16 4.4669e-16 0)
(-1.11961e-16 6.33172e-16 0)
(2.2252e-15 4.42353e-16 0)
(4.8233e-11 3.96817e-16 0)
(8.48062e-08 4.33679e-16 0)
(1.7987e-05 8.69757e-15 0)
(0.000660848 -1.08741e-14 0)
(0.00638977 2.48408e-14 0)
(0.0250674 -1.69981e-14 0)
(0.0575302 1.0646e-14 0)
(0.0984643 5.77855e-16 0)
(0.143581 5.57039e-15 0)
(0.190836 3.38953e-15 0)
(0.239353 5.50072e-15 0)
(0.288714 1.80357e-14 0)
(0.338696 -1.13473e-14 0)
(0.389173 2.59877e-14 0)
(0.440079 1.95713e-14 0)
(0.491388 -6.49697e-15 0)
(0.5431 1.90801e-14 0)
(0.595228 2.45491e-14 0)
(0.647782 1.89695e-14 0)
(0.700723 4.79866e-15 0)
(0.753883 1.45034e-14 0)
(0.806801 1.42145e-14 0)
(0.857965 6.07874e-15 0)
(0.903317 3.98305e-15 0)
(0.932602 5.24113e-16 0)
(0.937674 9.187e-15 0)
(0.924832 1.00276e-14 0)
(0.926256 1.51148e-14 0)
(0.927393 7.6377e-15 0)
(0.927609 3.11952e-15 0)
(0.927812 2.16934e-15 0)
(0.92796 1.46833e-15 0)
(0.928238 1.43765e-15 0)
(0.928392 2.80937e-15 0)
(0.928174 7.29628e-15 0)
(0.927972 7.74705e-15 0)
(0.928162 6.26277e-15 0)
(0.928747 7.53416e-15 0)
(0.928878 8.40843e-15 0)
(0.928966 4.52813e-15 0)
(0.931209 3.04559e-15 0)
(0.929871 -2.59114e-15 0)
(0.925916 3.48132e-16 0)
(0.924832 5.00492e-15 0)
(0.924829 9.97366e-16 0)
(0.925884 1.53343e-15 0)
(0.927887 -1.17912e-15 0)
(0.926931 -2.09142e-15 0)
(0.916572 -9.29292e-16 0)
(0.848325 1.03547e-15 0)
(0.562958 5.10308e-16 0)
(0.114137 1.26568e-15 0)
(0.00242423 2.03396e-15 0)
(3.72761e-06 5.1174e-16 0)
(2.99765e-10 4.53195e-16 0)
(7.61534e-15 2.33103e-16 0)
(5.40302e-17 4.62953e-16 0)
(1.97108e-16 3.96817e-16 0)
(1.59435e-16 1.35525e-16 0)
(-1.50926e-17 -6.83045e-17 0)
(-1.48234e-16 3.14417e-17 0)
(-8.65005e-17 1.5504e-16 0)
(-1.78775e-16 5.31257e-17 0)
(-2.80532e-16 1.56125e-16 0)
(-1.42549e-16 1.57209e-16 0)
(-9.67992e-17 3.63206e-16 0)
(-1.47413e-16 5.009e-16 0)
(-3.77153e-17 3.8489e-16 0)
(1.34089e-16 2.15755e-16 0)
(2.89677e-17 1.01915e-16 0)
(-1.87424e-16 3.02491e-16 0)
(-3.92754e-16 5.06321e-16 0)
(-3.72625e-16 4.20669e-16 0)
(-4.65121e-16 5.22584e-16 0)
(-2.1684e-18 -2.1684e-18 0)
(2.77608e-16 -2.1684e-18 0)
(6.01964e-16 -2.1684e-18 0)
(1.92492e-16 3.90311e-17 0)
(-3.01952e-16 2.86228e-16 0)
(-6.85554e-16 2.01661e-16 0)
(-3.6549e-16 -2.1684e-18 0)
(-2.01289e-17 -2.1684e-18 0)
(-4.10532e-18 0 0)
(1.37529e-16 0 0)
(4.01629e-16 -4.33679e-18 0)
(2.21124e-16 -1.14925e-16 0)
(1.6158e-16 2.4286e-16 0)
(2.10197e-16 5.96309e-16 0)
(2.6805e-16 3.27428e-16 0)
(-5.34915e-17 0 0)
(-3.65784e-16 -2.1684e-18 0)
(-1.1095e-16 1.17093e-16 0)
(-9.41176e-17 3.55617e-16 0)
(-2.19384e-16 1.73472e-16 0)
(6.7727e-18 0 0)
(2.39665e-16 2.03829e-16 0)
(9.20656e-17 4.0549e-16 0)
(1.9483e-16 2.21176e-16 0)
(-4.03593e-18 2.25513e-16 0)
(2.13693e-15 2.45029e-16 0)
(4.82316e-11 -9.02053e-16 0)
(8.48062e-08 3.11382e-15 0)
(1.7987e-05 1.45849e-14 0)
(0.000660848 -2.49548e-14 0)
(0.00638977 3.2842e-14 0)
(0.0250674 -9.15472e-15 0)
(0.0575302 4.4531e-15 0)
(0.0984643 2.82205e-15 0)
(0.143581 2.92927e-15 0)
(0.190836 4.556e-15 0)
(0.239353 4.56616e-15 0)
(0.288714 2.32193e-14 0)
(0.338696 -1.32084e-14 0)
(0.389173 2.26836e-14 0)
(0.440079 1.59111e-14 0)
(0.491388 -1.3188e-14 0)
(0.5431 1.62032e-14 0)
(0.595228 2.32184e-14 0)
(0.647782 1.79691e-14 0)
(0.700723 3.50605e-15 0)
(0.753883 1.22132e-14 0)
(0.806801 1.20686e-14 0)
(0.857965 6.34231e-15 0)
(0.903317 2.55318e-15 0)
(0.932602 3.02508e-16 0)
(0.937674 1.06733e-14 0)
(0.924832 1.29516e-14 0)
(0.926256 1.17562e-14 0)
(0.927393 9.22036e-15 0)
(0.927609 1.97447e-15 0)
(0.927812 2.01082e-15 0)
(0.92796 2.48315e-15 0)
(0.928238 -6.28532e-16 0)
(0.928392 2.10623e-15 0)
(0.928174 5.77575e-15 0)
(0.927972 6.54202e-15 0)
(0.928162 6.76072e-15 0)
(0.928747 7.22741e-15 0)
(0.928878 6.91859e-15 0)
(0.928966 2.18802e-15 0)
(0.931209 6.81754e-15 0)
(0.929871 1.59659e-15 0)
(0.925916 1.64075e-15 0)
(0.924832 3.35191e-15 0)
(0.924829 1.50738e-15 0)
(0.925884 3.40162e-15 0)
(0.927887 1.17553e-15 0)
(0.926931 7.02267e-16 0)
(0.916572 2.05414e-15 0)
(0.848325 1.56328e-16 0)
(0.562958 3.33007e-15 0)
(0.114137 3.22684e-15 0)
(0.00242423 1.02996e-15 0)
(3.72761e-06 8.65187e-16 0)
(2.99765e-10 9.74694e-16 0)
(8.05939e-15 5.38847e-16 0)
(2.11493e-16 6.74371e-16 0)
(1.74441e-17 5.1391e-16 0)
(-1.46347e-16 2.81892e-16 0)
(-3.14428e-17 1.51788e-16 0)
(2.24351e-17 2.03829e-16 0)
(-1.49972e-16 2.17924e-16 0)
(-2.79714e-16 6.28835e-17 0)
(-1.78114e-16 1.64798e-16 0)
(-7.49048e-17 6.28835e-17 0)
(2.87301e-17 1.79977e-16 0)
(-1.57402e-16 3.7188e-16 0)
(-2.0696e-16 5.84383e-16 0)
(-7.75905e-17 4.96563e-16 0)
(-1.52248e-16 3.14417e-16 0)
(-7.58152e-17 1.91903e-16 0)
(-2.61244e-16 2.9707e-16 0)
(-5.08094e-16 2.10334e-16 0)
(-7.05813e-16 2.88397e-16 0)
(-2.1684e-18 2.1684e-18 0)
(2.56041e-16 2.1684e-18 0)
(5.82996e-16 2.1684e-18 0)
(1.61118e-16 1.66967e-16 0)
(-5.95385e-16 -1.60461e-16 0)
(-6.49477e-16 -5.44268e-16 0)
(-3.0921e-16 -2.40692e-16 0)
(-3.05893e-18 2.1684e-18 0)
(-2.00505e-17 0 0)
(1.55491e-16 -2.1684e-18 0)
(4.14333e-16 5.85467e-17 0)
(2.32042e-16 2.1684e-16 0)
(4.07596e-16 5.85467e-17 0)
(2.24027e-16 2.4286e-16 0)
(2.83254e-16 5.85467e-17 0)
(-5.17797e-17 9.32411e-17 0)
(-3.91018e-16 2.1684e-18 0)
(-1.33741e-16 2.1684e-18 0)
(-9.05952e-17 -1.51788e-17 0)
(-2.69924e-16 0 0)
(6.07276e-17 0 0)
(3.33912e-16 2.62376e-16 0)
(7.23429e-17 6.07151e-17 0)
(-4.51657e-17 -2.38524e-17 0)
(-6.06578e-17 -2.68881e-16 0)
(2.45016e-15 -3.25259e-17 0)
(4.8231e-11 7.58939e-17 0)
(8.48062e-08 1.73689e-15 0)
(1.7987e-05 1.91711e-14 0)
(0.000660848 -3.35725e-14 0)
(0.00638977 2.28481e-14 0)
(0.0250674 -1.10751e-18 0)
(0.0575302 -2.40474e-15 0)
(0.0984643 5.10635e-15 0)
(0.143581 -3.82804e-15 0)
(0.190836 8.49108e-15 0)
(0.239353 6.66593e-17 0)
(0.288714 2.49143e-14 0)
(0.338696 -1.3472e-14 0)
(0.389173 1.85611e-14 0)
(0.440079 1.75919e-14 0)
(0.491388 -1.47207e-14 0)
(0.5431 1.45549e-14 0)
(0.595228 2.07728e-14 0)
(0.647782 1.69067e-14 0)
(0.700723 3.53355e-15 0)
(0.753883 8.40163e-15 0)
(0.806801 1.1783e-14 0)
(0.857965 4.01411e-15 0)
(0.903317 5.72572e-15 0)
(0.932602 4.64283e-15 0)
(0.937674 6.59868e-15 0)
(0.924832 8.74632e-15 0)
(0.926256 5.69925e-15 0)
(0.927393 7.86633e-15 0)
(0.927609 3.0846e-15 0)
(0.927812 2.03687e-15 0)
(0.92796 4.00045e-15 0)
(0.928238 -4.04813e-15 0)
(0.928392 -7.19858e-16 0)
(0.928174 3.53606e-15 0)
(0.927972 5.16403e-15 0)
(0.928162 7.59336e-15 0)
(0.928747 3.01529e-15 0)
(0.928878 7.42992e-15 0)
(0.928966 -3.8374e-16 0)
(0.931209 6.18597e-15 0)
(0.929871 6.88927e-15 0)
(0.925916 9.99592e-16 0)
(0.924832 6.43785e-16 0)
(0.924829 -2.751e-16 0)
(0.925884 4.25986e-15 0)
(0.927887 8.72419e-16 0)
(0.926931 2.35439e-15 0)
(0.916572 3.30644e-15 0)
(0.848325 -1.72015e-15 0)
(0.562958 6.90704e-15 0)
(0.114137 1.70664e-15 0)
(0.00242423 -7.35686e-17 0)
(3.72761e-06 3.43256e-15 0)
(2.99764e-10 2.00794e-15 0)
(7.7077e-15 6.87382e-16 0)
(3.06862e-17 4.65121e-16 0)
(-1.41791e-16 3.14417e-16 0)
(-1.4873e-16 4.15248e-16 0)
(-3.81931e-17 4.08743e-16 0)
(-3.06461e-17 3.74048e-16 0)
(-3.54409e-16 2.2985e-16 0)
(-4.89066e-16 2.10334e-16 0)
(-3.50042e-16 -8.67359e-18 0)
(-1.72064e-17 -1.36609e-16 0)
(2.21832e-16 -1.18178e-16 0)
(1.08633e-16 3.57785e-17 0)
(3.8384e-17 4.01153e-16 0)
(3.47877e-17 6.54856e-16 0)
(-1.86025e-16 5.29089e-16 0)
(-3.01504e-16 1.37693e-16 0)
(-4.51875e-16 -1.35525e-16 0)
(-6.54734e-16 -8.13149e-17 0)
(-8.27243e-16 -1.94071e-16 0)
(0 0 0)
(1.47645e-16 0 0)
(2.73004e-16 -1.43114e-16 0)
(-1.24269e-16 -4.03322e-16 0)
(-6.9121e-16 -5.65951e-16 0)
(-3.67743e-16 -2.45029e-16 0)
(-8.3917e-17 -2.1684e-17 0)
(4.03291e-17 0 0)
(-4.40302e-17 0 0)
(1.66195e-16 3.25259e-17 0)
(4.29673e-16 2.9707e-16 0)
(2.37197e-16 4.79216e-16 0)
(-2.46456e-17 2.1684e-16 0)
(8.36629e-17 -1.04083e-16 0)
(3.0976e-16 -6.50519e-17 0)
(-4.88248e-17 -9.54094e-17 0)
(-4.01829e-16 0 0)
(-1.74862e-16 -9.97462e-17 0)
(-3.0081e-17 -3.81638e-16 0)
(-2.19725e-17 -1.36609e-16 0)
(2.39147e-16 0 0)
(5.63204e-17 1.95156e-17 0)
(-1.87524e-16 -2.27682e-16 0)
(-2.2079e-17 -4.55363e-17 0)
(8.52405e-18 -1.14925e-16 0)
(2.67674e-15 1.30104e-17 0)
(4.8232e-11 8.02307e-16 0)
(8.48062e-08 -2.06431e-15 0)
(1.7987e-05 1.54674e-14 0)
(0.000660848 -1.9891e-14 0)
(0.00638977 2.75355e-15 0)
(0.0250674 1.20896e-14 0)
(0.0575302 -4.76281e-15 0)
(0.0984643 5.3941e-15 0)
(0.143581 -7.20362e-15 0)
(0.190836 1.01443e-14 0)
(0.239353 -2.95167e-15 0)
(0.288714 2.29798e-14 0)
(0.338696 -1.20172e-14 0)
(0.389173 1.44218e-14 0)
(0.440079 1.68577e-14 0)
(0.491388 -1.37301e-14 0)
(0.5431 1.06599e-14 0)
(0.595228 1.6191e-14 0)
(0.647782 1.49166e-14 0)
(0.700723 3.07314e-15 0)
(0.753883 6.58857e-15 0)
(0.806801 9.89667e-15 0)
(0.857965 3.83127e-15 0)
(0.903317 7.69056e-15 0)
(0.932602 5.17334e-15 0)
(0.937674 5.9969e-15 0)
(0.924832 5.02489e-15 0)
(0.926256 4.23753e-15 0)
(0.927393 7.28173e-15 0)
(0.927609 1.51626e-15 0)
(0.927812 -3.62139e-17 0)
(0.92796 2.29074e-15 0)
(0.928238 -7.12666e-15 0)
(0.928392 -2.64034e-15 0)
(0.928174 2.44167e-15 0)
(0.927972 3.46299e-15 0)
(0.928162 5.47317e-15 0)
(0.928747 1.19142e-15 0)
(0.928878 6.13381e-15 0)
(0.928966 -1.40171e-15 0)
(0.931209 4.7627e-15 0)
(0.929871 5.10972e-15 0)
(0.925916 -1.65826e-15 0)
(0.924832 6.23167e-16 0)
(0.924829 -3.38981e-16 0)
(0.925884 2.2626e-15 0)
(0.927887 -8.56519e-16 0)
(0.926931 -1.60445e-16 0)
(0.916572 2.38437e-15 0)
(0.848325 -2.21474e-15 0)
(0.562958 4.96347e-15 0)
(0.114137 -2.87071e-16 0)
(0.00242423 -4.18367e-15 0)
(3.72761e-06 3.3545e-15 0)
(2.99762e-10 1.06143e-15 0)
(7.54382e-15 4.14164e-16 0)
(-7.59343e-17 1.73472e-16 0)
(-1.77188e-16 5.42099e-17 0)
(1.22794e-17 2.4286e-16 0)
(1.29291e-16 4.52111e-16 0)
(-5.8832e-17 2.24429e-16 0)
(-4.35127e-16 5.42099e-17 0)
(-6.80442e-16 8.89043e-17 0)
(-5.09914e-16 -8.78201e-17 0)
(-1.70447e-16 4.33679e-18 0)
(8.20064e-17 -2.56955e-16 0)
(3.43613e-16 -1.99492e-16 0)
(3.43272e-16 1.0083e-16 0)
(1.13103e-16 3.98985e-16 0)
(-2.70151e-16 3.10081e-16 0)
(-5.38106e-16 -6.61361e-17 0)
(-6.06172e-16 -3.08997e-16 0)
(-5.04651e-16 -2.53702e-16 0)
(-6.04983e-16 -3.55617e-16 0)
(0 0 0)
(1.72051e-16 -1.10588e-16 0)
(-3.81729e-17 -4.57532e-16 0)
(-1.11404e-16 -8.23991e-16 0)
(-3.47056e-16 -5.83299e-16 0)
(-9.4455e-17 -1.99492e-16 0)
(1.57246e-16 0 0)
(1.11309e-16 0 0)
(-5.35344e-17 0 0)
(1.69754e-16 0 0)
(4.16857e-16 6.50519e-17 0)
(1.80897e-17 2.23345e-16 0)
(-3.27708e-16 0 0)
(-3.94531e-17 -5.20415e-17 0)
(2.12405e-16 0 0)
(1.8797e-17 -9.32411e-17 0)
(-2.46025e-16 0 0)
(-2.13792e-16 0 0)
(-3.96434e-17 -1.17093e-16 0)
(1.3749e-17 0 0)
(2.20965e-16 0 0)
(2.89978e-18 -9.32411e-17 0)
(-1.74123e-16 -4.55363e-17 0)
(-2.79074e-17 0 0)
(5.24831e-18 0 0)
(2.69354e-15 0 0)
(4.8233e-11 6.85213e-16 0)
(8.48062e-08 -8.06644e-16 0)
(1.7987e-05 3.91618e-15 0)
(0.000660848 -4.06802e-15 0)
(0.00638977 -4.14449e-15 0)
(0.0250674 1.51785e-14 0)
(0.0575302 -2.79301e-15 0)
(0.0984643 5.07923e-15 0)
(0.143581 -7.09082e-15 0)
(0.190836 1.09122e-14 0)
(0.239353 -1.8438e-15 0)
(0.288714 1.8739e-14 0)
(0.338696 -9.04782e-15 0)
(0.389173 1.07108e-14 0)
(0.440079 1.27985e-14 0)
(0.491388 -9.16402e-15 0)
(0.5431 6.46126e-15 0)
(0.595228 1.12351e-14 0)
(0.647782 1.1962e-14 0)
(0.700723 3.30742e-15 0)
(0.753883 8.65359e-15 0)
(0.806801 7.56445e-15 0)
(0.857965 4.83569e-15 0)
(0.903317 3.67399e-15 0)
(0.932602 7.88472e-15 0)
(0.937674 8.27935e-15 0)
(0.924832 4.51473e-15 0)
(0.926256 4.195e-15 0)
(0.927393 7.0696e-15 0)
(0.927609 -5.29659e-16 0)
(0.927812 -2.46509e-16 0)
(0.92796 -9.55668e-16 0)
(0.928238 -4.67379e-15 0)
(0.928392 -3.02308e-15 0)
(0.928174 -1.97409e-16 0)
(0.927972 1.07783e-15 0)
(0.928162 1.5127e-15 0)
(0.928747 5.5045e-16 0)
(0.928878 1.49413e-15 0)
(0.928966 -1.03162e-15 0)
(0.931209 3.12641e-15 0)
(0.929871 1.73407e-15 0)
(0.925916 -4.54735e-16 0)
(0.924832 7.70583e-16 0)
(0.924829 2.22553e-16 0)
(0.925884 6.59754e-16 0)
(0.927887 -9.86279e-16 0)
(0.926931 -9.00644e-16 0)
(0.916572 9.87598e-16 0)
(0.848325 -9.64114e-17 0)
(0.562958 2.51234e-15 0)
(0.114137 -8.33592e-16 0)
(0.00242423 -8.26565e-16 0)
(3.72761e-06 7.20989e-16 0)
(2.99762e-10 9.32411e-17 0)
(7.5466e-15 6.50519e-18 0)
(-1.3725e-17 0 0)
(-1.39333e-16 0 0)
(6.11292e-17 6.61361e-17 0)
(2.12699e-16 2.45029e-16 0)
(2.43284e-18 3.57785e-17 0)
(-4.07294e-16 0 0)
(-6.70104e-16 0 0)
(-4.91577e-16 0 0)
(-3.11735e-16 -1.6263e-17 0)
(5.04324e-17 -9.97462e-17 0)
(3.85089e-16 -9.8662e-17 0)
(4.44691e-16 0 0)
(1.67221e-16 0 0)
(-3.02389e-16 3.68627e-17 0)
(-5.79461e-16 5.85467e-17 0)
(-5.35914e-16 -1.0083e-16 0)
(-4.34952e-16 -4.55363e-17 0)
(-4.00069e-16 -1.47451e-16 0)
(2.77555e-16 1.99492e-16 0)
(2.60281e-16 0 0)
(-9.00591e-17 -1.82145e-16 0)
(-1.01549e-16 -4.81384e-16 0)
(-2.70366e-17 -2.1684e-16 0)
(8.41039e-17 0 0)
(3.72656e-16 1.47451e-16 0)
(1.62339e-16 3.5128e-16 0)
(-3.80099e-17 2.14671e-16 0)
(2.14518e-16 3.03576e-17 0)
(4.3262e-16 0 0)
(6.49051e-17 0 0)
(-3.02468e-16 0 0)
(-1.31148e-17 -7.37255e-17 0)
(2.24341e-16 0 0)
(8.52608e-18 9.32411e-17 0)
(-2.85841e-16 8.89043e-17 0)
(-3.37805e-16 0 0)
(-8.38039e-17 0 0)
(4.97232e-17 0 0)
(2.23805e-16 0 0)
(4.99718e-18 9.32411e-17 0)
(-2.33028e-16 0 0)
(-5.96682e-17 0 0)
(-3.13806e-17 0 0)
(2.67286e-15 6.50519e-18 0)
(4.82335e-11 -7.48097e-16 0)
(8.48062e-08 1.32272e-16 0)
(1.7987e-05 -5.59455e-15 0)
(0.000660848 -1.09131e-15 0)
(0.00638977 1.41711e-15 0)
(0.0250674 5.86872e-15 0)
(0.0575302 7.19146e-15 0)
(0.0984643 3.49072e-15 0)
(0.143581 -7.38019e-15 0)
(0.190836 1.30637e-14 0)
(0.239353 -2.34641e-15 0)
(0.288714 1.25776e-14 0)
(0.338696 -5.54112e-15 0)
(0.389173 9.24778e-15 0)
(0.440079 9.27404e-15 0)
(0.491388 -3.79812e-15 0)
(0.5431 4.33032e-15 0)
(0.595228 7.3288e-15 0)
(0.647782 9.17485e-15 0)
(0.700723 3.86052e-16 0)
(0.753883 7.69506e-15 0)
(0.806801 5.32593e-15 0)
(0.857965 7.38947e-15 0)
(0.903317 4.54656e-15 0)
(0.932602 1.17255e-14 0)
(0.937674 7.15901e-15 0)
(0.924832 4.36e-15 0)
(0.926256 5.15836e-15 0)
(0.927393 2.40258e-15 0)
(0.927609 -2.29995e-15 0)
(0.927812 -2.64298e-16 0)
(0.92796 -1.68045e-15 0)
(0.928238 -3.56828e-15 0)
(0.928392 -1.58851e-15 0)
(0.928174 -1.35184e-15 0)
(0.927972 1.92145e-16 0)
(0.928162 -2.22654e-16 0)
(0.928747 2.40991e-16 0)
(0.928878 -2.39592e-15 0)
(0.928966 4.34591e-16 0)
(0.931209 4.44492e-16 0)
(0.929871 2.03203e-15 0)
(0.925916 1.34669e-15 0)
(0.924832 -2.40195e-16 0)
(0.924829 -1.4332e-15 0)
(0.925884 -1.13747e-15 0)
(0.927887 -1.0986e-15 0)
(0.926931 -1.32252e-15 0)
(0.916572 -8.63762e-16 0)
(0.848325 1.01096e-15 0)
(0.562958 7.91597e-16 0)
(0.114137 -2.56589e-15 0)
(0.00242423 2.31092e-15 0)
(3.72761e-06 -6.11486e-16 0)
(2.99762e-10 -4.81384e-16 0)
(7.6798e-15 -3.11165e-16 0)
(2.12192e-16 -2.86228e-16 0)
(1.02628e-16 -1.34441e-16 0)
(1.96934e-16 6.50519e-18 0)
(1.3395e-16 3.90311e-17 0)
(-9.87538e-18 0 0)
(-3.59908e-16 0 0)
(-6.12624e-16 7.37255e-17 0)
(-5.87166e-16 1.90819e-16 0)
(-3.76262e-16 -1.73472e-17 0)
(7.24945e-17 -1.0842e-18 0)
(4.51718e-16 0 0)
(5.40093e-16 -1.46367e-16 0)
(3.42163e-16 -2.79723e-16 0)
(-4.0509e-17 -5.42099e-17 0)
(-4.83458e-16 2.27682e-16 0)
(-7.2307e-16 1.53956e-16 0)
(-6.07425e-16 2.69965e-16 0)
(-5.09573e-16 2.03829e-16 0)
(6.3534e-16 4.81384e-16 0)
(3.80524e-16 1.84314e-16 0)
(-1.14314e-16 1.49619e-16 0)
(-2.84257e-16 -1.69135e-16 0)
(-8.10884e-17 2.1684e-18 0)
(2.85401e-16 4.55363e-17 0)
(4.38581e-16 4.4669e-16 0)
(1.72084e-16 7.09066e-16 0)
(-1.63738e-17 5.22584e-16 0)
(2.4125e-16 2.55871e-16 0)
(3.55428e-16 1.36609e-16 0)
(8.30356e-17 -1.36609e-16 0)
(-2.20272e-16 -7.80623e-17 0)
(-8.7202e-18 -2.66713e-16 0)
(2.29848e-16 -6.28835e-17 0)
(-2.35288e-17 4.11995e-17 0)
(-3.20059e-16 3.36101e-16 0)
(-4.52043e-16 1.56125e-16 0)
(-1.6111e-16 0 0)
(6.46756e-17 0 0)
(2.22631e-16 0 0)
(1.38081e-17 -3.03576e-17 0)
(-2.83044e-16 0 0)
(-1.00992e-16 0 0)
(-1.70506e-16 0 0)
(2.56401e-15 1.73472e-17 0)
(4.82308e-11 -1.36175e-15 0)
(8.48062e-08 3.79469e-16 0)
(1.7987e-05 -1.24468e-14 0)
(0.000660848 1.4992e-15 0)
(0.00638977 1.24989e-14 0)
(0.0250674 -8.14466e-15 0)
(0.0575302 1.63994e-14 0)
(0.0984643 1.20642e-15 0)
(0.143581 -6.00567e-15 0)
(0.190836 1.50287e-14 0)
(0.239353 -1.67048e-15 0)
(0.288714 6.03603e-15 0)
(0.338696 -2.42615e-15 0)
(0.389173 8.14896e-15 0)
(0.440079 3.83731e-15 0)
(0.491388 1.3603e-15 0)
(0.5431 3.07704e-15 0)
(0.595228 2.64198e-15 0)
(0.647782 5.02515e-15 0)
(0.700723 -3.52235e-15 0)
(0.753883 7.16862e-15 0)
(0.806801 3.86858e-15 0)
(0.857965 5.28091e-15 0)
(0.903317 5.91562e-15 0)
(0.932602 1.01925e-14 0)
(0.937674 4.60089e-15 0)
(0.924832 2.32347e-15 0)
(0.926256 4.20928e-15 0)
(0.927393 -1.58171e-15 0)
(0.927609 -3.43484e-15 0)
(0.927812 1.16266e-16 0)
(0.92796 -2.0519e-15 0)
(0.928238 -2.44904e-15 0)
(0.928392 -5.81671e-17 0)
(0.928174 -2.49257e-15 0)
(0.927972 1.24507e-17 0)
(0.928162 -1.8008e-15 0)
(0.928747 5.47742e-16 0)
(0.928878 -3.43787e-15 0)
(0.928966 2.50537e-15 0)
(0.931209 -2.02092e-15 0)
(0.929871 -2.22317e-16 0)
(0.925916 3.88713e-15 0)
(0.924832 -2.47102e-15 0)
(0.924829 -2.96686e-15 0)
(0.925884 -2.48783e-15 0)
(0.927887 2.55417e-16 0)
(0.926931 1.18924e-16 0)
(0.916572 -1.15684e-15 0)
(0.848325 1.26914e-15 0)
(0.562958 -2.49033e-15 0)
(0.114137 -2.8204e-15 0)
(0.00242423 2.23627e-15 0)
(3.72761e-06 -3.07152e-15 0)
(2.99762e-10 -1.28694e-15 0)
(7.71963e-15 -5.54025e-16 0)
(2.80147e-16 -5.25836e-16 0)
(2.00471e-16 -3.3827e-16 0)
(2.42097e-16 -1.53956e-16 0)
(1.81337e-16 0 0)
(3.99514e-17 0 0)
(-1.23626e-16 -6.72203e-17 0)
(-4.03715e-16 1.73472e-16 0)
(-6.24592e-16 3.95732e-16 0)
(-3.87365e-16 1.79977e-16 0)
(4.41207e-17 3.79469e-17 0)
(4.07612e-16 9.10727e-17 0)
(5.60358e-16 -3.33933e-16 0)
(3.80576e-16 -5.12826e-16 0)
(1.17769e-16 -2.5045e-16 0)
(-3.8357e-16 7.58939e-17 0)
(-7.04154e-16 3.54533e-16 0)
(-6.28964e-16 5.11742e-16 0)
(-7.3075e-16 4.30427e-16 0)
(8.63022e-16 2.47197e-16 0)
(4.56735e-16 1.04083e-16 0)
(-1.15398e-16 1.34441e-16 0)
(-3.2331e-16 2.27682e-16 0)
(1.69983e-17 1.01915e-16 0)
(4.13893e-16 2.66713e-16 0)
(6.23195e-16 2.62376e-16 0)
(2.49918e-16 3.83806e-16 0)
(-1.98874e-16 3.42607e-16 0)
(2.87137e-16 2.73218e-16 0)
(-7.05731e-18 -2.38524e-17 0)
(-1.38598e-16 -2.53702e-16 0)
(-2.08298e-16 -1.51788e-17 0)
(-2.6607e-17 9.75778e-17 0)
(2.46933e-16 1.51788e-17 0)
(1.68789e-16 -1.51788e-16 0)
(-1.62679e-16 1.23599e-16 0)
(-5.30821e-16 2.34187e-16 0)
(-2.2837e-16 8.89043e-17 0)
(6.62219e-17 1.92987e-16 0)
(-1.60217e-16 4.11995e-17 0)
(-8.64683e-17 -1.97324e-16 0)
(1.18368e-16 2.38524e-17 0)
(-7.70715e-17 2.64544e-16 0)
(-3.03612e-16 1.64798e-16 0)
(2.42353e-15 1.51788e-17 0)
(4.82306e-11 -1.23599e-16 0)
(8.48062e-08 -7.87128e-16 0)
(1.7987e-05 -5.66394e-15 0)
(0.000660848 -3.27394e-15 0)
(0.00638977 2.17341e-14 0)
(0.0250674 -1.87248e-14 0)
(0.0575302 2.1604e-14 0)
(0.0984643 -5.5191e-16 0)
(0.143581 -5.35459e-15 0)
(0.190836 1.39197e-14 0)
(0.239353 -1.83313e-15 0)
(0.288714 -4.76308e-16 0)
(0.338696 -2.61546e-15 0)
(0.389173 7.28331e-15 0)
(0.440079 -1.74946e-15 0)
(0.491388 6.40829e-15 0)
(0.5431 2.4188e-15 0)
(0.595228 -1.29933e-15 0)
(0.647782 2.08114e-15 0)
(0.700723 -2.83682e-15 0)
(0.753883 4.78194e-15 0)
(0.806801 3.37979e-15 0)
(0.857965 5.24054e-15 0)
(0.903317 -8.9988e-16 0)
(0.932602 1.04183e-14 0)
(0.937674 6.85603e-15 0)
(0.924832 3.10219e-15 0)
(0.926256 1.64772e-15 0)
(0.927393 -1.90911e-15 0)
(0.927609 -3.27258e-15 0)
(0.927812 -1.4835e-16 0)
(0.92796 -3.15036e-15 0)
(0.928238 -1.16007e-15 0)
(0.928392 -3.29078e-16 0)
(0.928174 -7.58962e-16 0)
(0.927972 -2.32526e-16 0)
(0.928162 -3.06594e-15 0)
(0.928747 1.88383e-16 0)
(0.928878 -3.28442e-15 0)
(0.928966 1.81417e-15 0)
(0.931209 -1.43774e-15 0)
(0.929871 -4.42948e-15 0)
(0.925916 2.66197e-15 0)
(0.924832 -2.8143e-15 0)
(0.924829 -3.98225e-15 0)
(0.925884 -3.9431e-15 0)
(0.927887 -1.1263e-15 0)
(0.926931 2.52713e-16 0)
(0.916572 -1.5686e-15 0)
(0.848325 1.76264e-15 0)
(0.562958 -2.43118e-15 0)
(0.114137 8.81931e-16 0)
(0.00242423 -3.97054e-16 0)
(3.72761e-06 -1.674e-15 0)
(2.99763e-10 -1.01806e-15 0)
(7.83979e-15 -2.90565e-16 0)
(3.64619e-16 -3.10081e-16 0)
(2.48256e-16 -2.90565e-16 0)
(2.97522e-16 -1.2902e-16 0)
(2.15792e-16 0 0)
(6.24511e-17 -9.43252e-17 0)
(5.47778e-17 -2.39608e-16 0)
(-1.55084e-16 -8.67359e-18 0)
(-3.88131e-16 2.34187e-16 0)
(-2.86677e-16 3.63206e-16 0)
(-8.2516e-17 1.63714e-16 0)
(1.98887e-16 6.50519e-17 0)
(3.03111e-16 -1.51788e-16 0)
(4.95466e-16 -2.95986e-16 0)
(2.43656e-16 -1.48535e-16 0)
(-2.22342e-16 -1.05167e-16 0)
(-5.40618e-16 1.90819e-16 0)
(-7.01827e-16 3.12249e-16 0)
(-8.86874e-16 2.92734e-16 0)
(6.46182e-16 -2.1684e-18 0)
(3.26229e-16 2.55871e-16 0)
(-4.7918e-17 3.12249e-16 0)
(-2.89835e-17 5.20415e-16 0)
(1.95443e-16 3.64291e-16 0)
(4.17814e-16 5.74625e-16 0)
(4.37275e-16 3.46943e-16 0)
(1.62969e-16 8.23991e-17 0)
(1.62854e-17 1.97324e-16 0)
(-7.93483e-17 -9.54094e-17 0)
(-3.24605e-16 -3.42607e-16 0)
(-7.29705e-17 -9.10727e-17 0)
(-2.118e-16 2.19008e-16 0)
(1.36281e-17 4.66205e-16 0)
(2.33745e-16 2.55871e-16 0)
(8.87882e-17 3.03576e-17 0)
(-7.37371e-17 1.30104e-16 0)
(-3.49331e-16 4.0549e-16 0)
(-1.01539e-16 2.9707e-16 0)
(7.98223e-17 4.79216e-16 0)
(-1.56054e-16 2.49366e-16 0)
(-1.03889e-16 6.28835e-17 0)
(1.47358e-16 2.68881e-16 0)
(7.89303e-17 5.50773e-16 0)
(-1.43569e-16 3.68627e-16 0)
(2.14974e-15 2.88397e-16 0)
(4.82293e-11 -1.5092e-15 0)
(8.48062e-08 -2.36355e-15 0)
(1.7987e-05 5.36903e-15 0)
(0.000660848 -9.86087e-15 0)
(0.00638977 2.4154e-14 0)
(0.0250674 -2.38082e-14 0)
(0.0575302 1.83043e-14 0)
(0.0984643 -1.3727e-15 0)
(0.143581 -3.80842e-15 0)
(0.190836 9.10434e-15 0)
(0.239353 -1.63849e-15 0)
(0.288714 -3.26174e-15 0)
(0.338696 -7.55805e-16 0)
(0.389173 7.28027e-15 0)
(0.440079 -7.0553e-15 0)
(0.491388 1.06967e-14 0)
(0.5431 1.99578e-15 0)
(0.595228 -5.36874e-15 0)
(0.647782 2.8859e-16 0)
(0.700723 -2.14723e-15 0)
(0.753883 2.11756e-15 0)
(0.806801 -4.47026e-16 0)
(0.857965 4.42965e-15 0)
(0.903317 -2.74308e-15 0)
(0.932602 1.10281e-14 0)
(0.937674 3.76778e-15 0)
(0.924832 4.41359e-16 0)
(0.926256 -1.82769e-15 0)
(0.927393 -2.07804e-15 0)
(0.927609 -4.14105e-15 0)
(0.927812 -2.97589e-15 0)
(0.92796 -3.32687e-15 0)
(0.928238 9.65451e-16 0)
(0.928392 -7.83167e-16 0)
(0.928174 6.39538e-17 0)
(0.927972 -9.90002e-16 0)
(0.928162 -2.39905e-15 0)
(0.928747 -8.18905e-16 0)
(0.928878 -3.84933e-15 0)
(0.928966 -1.73978e-15 0)
(0.931209 1.34495e-15 0)
(0.929871 -3.28723e-15 0)
(0.925916 -1.58977e-15 0)
(0.924832 -2.63905e-16 0)
(0.924829 -1.55375e-15 0)
(0.925884 -5.13199e-16 0)
(0.927887 -1.52943e-15 0)
(0.926931 -6.15637e-16 0)
(0.916572 -6.10928e-16 0)
(0.848325 3.20827e-16 0)
(0.562958 2.6547e-16 0)
(0.114137 3.1055e-15 0)
(0.00242423 -3.82773e-15 0)
(3.72761e-06 1.07877e-15 0)
(2.99764e-10 6.19077e-16 0)
(7.49331e-15 3.03576e-17 0)
(1.24305e-16 6.28835e-17 0)
(2.4946e-16 -4.33679e-17 0)
(3.21885e-16 -1.0842e-17 0)
(1.19628e-16 -4.22837e-17 0)
(-5.103e-17 -2.13587e-16 0)
(6.80891e-17 -8.02307e-17 0)
(6.15901e-17 0 0)
(-1.05738e-16 -1.95156e-17 0)
(-2.44973e-16 1.69135e-16 0)
(-1.27902e-16 6.39677e-17 0)
(5.40775e-17 2.23345e-16 0)
(2.09143e-16 2.65629e-16 0)
(3.40538e-16 9.54094e-17 0)
(9.8128e-17 -1.50704e-16 0)
(-2.8471e-16 -2.59123e-16 0)
(-5.36332e-16 -3.25259e-18 0)
(-6.33968e-16 7.15571e-17 0)
(-8.03391e-16 1.22514e-16 0)
(8.45675e-16 -2.23345e-16 0)
(4.48606e-16 -9.97462e-17 0)
(-3.26377e-17 -3.25259e-17 0)
(-9.44868e-17 2.32018e-16 0)
(2.59185e-16 1.84314e-16 0)
(5.99713e-16 2.9707e-16 0)
(2.56141e-16 -3.90311e-17 0)
(1.71992e-17 -3.96817e-16 0)
(-2.20955e-16 -2.47197e-16 0)
(-4.42232e-16 -4.61868e-16 0)
(-1.02073e-16 -1.23599e-16 0)
(1.86404e-16 1.69135e-16 0)
(-2.8805e-17 3.90311e-17 0)
(-2.10115e-16 2.45029e-16 0)
(-3.86812e-17 -4.33679e-18 0)
(2.72674e-16 -7.37255e-17 0)
(1.60961e-16 -1.6263e-16 0)
(-3.61208e-17 2.38524e-17 0)
(1.10459e-17 4.33679e-18 0)
(7.42553e-17 5.63783e-17 0)
(-1.09277e-16 -1.19262e-16 0)
(-8.02958e-17 4.33679e-18 0)
(1.51697e-16 8.89043e-17 0)
(7.66589e-18 2.03829e-16 0)
(-2.54554e-16 6.50519e-18 0)
(2.05675e-15 2.38524e-17 0)