/*--------------------------------*- C++ -*----------------------------------*\
| =========                 |                                                 |
| \\      /  F ield         | OpenFOAM: The Open Source CFD Toolbox           |
|  \\    /   O peration     | Version:  4.1                                   |
|   \\  /    A nd           | Web:      www.OpenFOAM.org                      |
|    \\/     M anipulation  |                                                 |
\*---------------------------------------------------------------------------*/
FoamFile
{
    version     2.0;
    format      ascii;
    class       volVectorField;
    location    "0.25";
    object      U;
}
// * * * * * * * * * * * * * * * * * * * * * * * * * * * * * * * * * * * * * //

dimensions      [0 1 -1 0 0 0 0];

internalField   nonuniform List<vector> 
10000
(
(0 0 0)
(1.15343e-16 0 0)
(2.78756e-16 0 0)
(8.51678e-17 1.45283e-16 0)
(-1.16952e-16 0 0)
(-2.30114e-16 0 0)
(-2.18457e-16 0 0)
(-3.16804e-17 0 0)
(-1.44899e-24 0 0)
(1.83688e-16 1.38777e-16 0)
(4.22481e-16 0 0)
(1.01675e-16 -1.53956e-16 0)
(-2.63483e-16 0 0)
(1.19628e-17 0 0)
(1.56389e-16 0 0)
(-3.96689e-17 1.30104e-16 0)
(-2.37965e-16 0 0)
(-1.05684e-16 0 0)
(-1.65393e-17 0 0)
(-1.32042e-16 0 0)
(2.91039e-19 0 0)
(8.34927e-17 1.12757e-16 0)
(2.22033e-17 0 0)
(1.00544e-16 0 0)
(-8.07722e-17 0 0)
(-2.46051e-16 0 0)
(-3.74295e-16 -1.49619e-16 0)
(-9.66265e-17 1.45283e-16 0)
(2.20648e-15 8.89043e-17 0)
(3.71201e-11 9.7361e-16 0)
(7.46976e-08 1.19912e-15 0)
(1.76474e-05 -1.5591e-15 0)
(0.000701852 3.54093e-15 0)
(0.00714288 3.052e-15 0)
(0.0288305 8.56975e-15 0)
(0.0671059 4.02493e-15 0)
(0.115651 -8.84788e-15 0)
(0.169269 5.51594e-15 0)
(0.225484 -1.41591e-15 0)
(0.283235 2.18836e-14 0)
(0.34203 3.60393e-14 0)
(0.401624 2.89848e-14 0)
(0.461904 1.04412e-14 0)
(0.52284 1.28281e-14 0)
(0.584454 1.73762e-14 0)
(0.646753 2.50363e-14 0)
(0.709698 9.17013e-15 0)
(0.77274 -1.69679e-14 0)
(0.834724 -1.77505e-14 0)
(0.891007 9.27691e-15 0)
(0.930449 9.47776e-15 0)
(0.940246 1.03279e-14 0)
(0.92442 1.09351e-14 0)
(0.92591 9.45181e-15 0)
(0.927289 6.07065e-15 0)
(0.927428 4.76196e-15 0)
(0.927431 4.01236e-15 0)
(0.927433 2.12963e-15 0)
(0.927749 4.37239e-15 0)
(0.928309 6.49339e-15 0)
(0.928825 6.49974e-15 0)
(0.929375 5.06556e-15 0)
(0.931413 2.36069e-15 0)
(0.931145 7.0102e-15 0)
(0.923277 -7.96503e-16 0)
(0.923442 -6.62266e-16 0)
(0.925856 -3.15924e-16 0)
(0.929522 -3.59594e-15 0)
(0.932463 -5.20761e-15 0)
(0.930274 -6.57971e-15 0)
(0.907311 -6.65217e-15 0)
(0.773118 -5.85818e-15 0)
(0.361472 -2.58277e-15 0)
(0.0303144 1.13058e-15 0)
(0.000215424 3.46876e-16 0)
(9.5894e-08 5.74625e-17 0)
(2.90731e-12 1.51788e-17 0)
(-2.08087e-17 0 0)
(-1.50305e-16 1.31188e-16 0)
(4.8383e-17 0 0)
(2.5247e-16 0 0)
(5.18882e-17 0 0)
(-1.42851e-16 0 0)
(6.08567e-17 0 0)
(2.6012e-16 9.97462e-17 0)
(7.94182e-17 0 0)
(-1.69547e-16 0 0)
(-6.51345e-17 0 0)
(-6.09845e-17 0 0)
(-1.6581e-16 0 0)
(-2.38805e-16 -6.50519e-18 0)
(-3.89472e-16 0 0)
(-1.83776e-16 6.07151e-17 0)
(6.22003e-17 0 0)
(2.72665e-16 0 0)
(4.97616e-17 0 0)
(-1.92293e-16 1.12757e-16 0)
(-2.29608e-16 5.09573e-17 0)
(-1.36292e-16 0 0)
(0 6.50519e-17 0)
(0 0 0)
(1.55676e-16 0 0)
(2.90816e-16 1.38777e-16 0)
(9.64931e-17 3.29596e-16 0)
(-1.30191e-16 1.25767e-16 0)
(-3.03617e-16 2.47197e-16 0)
(-2.72348e-16 4.98731e-17 0)
(-3.25479e-17 0 0)
(-3.81595e-22 0 0)
(2.04913e-16 0 0)
(4.93715e-16 0 0)
(1.4081e-16 0 0)
(-2.16792e-16 0 0)
(4.13282e-17 0 0)
(1.56074e-16 1.30104e-16 0)
(-4.45968e-17 3.14417e-16 0)
(-2.45913e-16 1.27935e-16 0)
(-1.39742e-16 0 0)
(-3.88862e-17 0 0)
(-2.00084e-16 0 0)
(-2.8464e-19 0 0)
(1.20265e-16 2.1684e-18 0)
(4.16355e-17 0 0)
(1.14658e-16 1.56125e-16 0)
(-1.16016e-16 3.5128e-16 0)
(-3.15335e-16 1.53956e-16 0)
(-2.73561e-16 1.0842e-16 0)
(-5.30778e-17 3.29596e-16 0)
(2.01648e-15 9.75778e-17 0)
(3.7121e-11 6.07151e-17 0)
(7.46976e-08 1.84747e-15 0)
(1.76474e-05 -7.00403e-16 0)
(0.000701852 6.03389e-15 0)
(0.00714288 5.12667e-15 0)
(0.0288305 9.53972e-15 0)
(0.0671059 -4.49791e-15 0)
(0.115651 7.5839e-15 0)
(0.169269 7.69649e-15 0)
(0.225484 -3.91582e-15 0)
(0.283235 2.92659e-14 0)
(0.34203 1.42281e-15 0)
(0.401624 1.19127e-14 0)
(0.461904 3.0594e-14 0)
(0.52284 1.43734e-14 0)
(0.584454 1.00362e-14 0)
(0.646753 1.00714e-14 0)
(0.709698 1.66293e-14 0)
(0.77274 5.24307e-16 0)
(0.834724 -8.59567e-16 0)
(0.891007 7.00338e-15 0)
(0.930449 1.19139e-14 0)
(0.940246 8.701e-15 0)
(0.92442 6.26769e-15 0)
(0.92591 9.75853e-15 0)
(0.927289 6.41508e-15 0)
(0.927428 3.83991e-15 0)
(0.927431 2.03413e-15 0)
(0.927433 3.95582e-16 0)
(0.927749 2.91438e-15 0)
(0.928309 4.5098e-15 0)
(0.928825 6.23481e-15 0)
(0.929375 7.31567e-15 0)
(0.931413 6.133e-15 0)
(0.931145 8.63148e-15 0)
(0.923277 2.62856e-15 0)
(0.923442 1.24008e-15 0)
(0.925856 9.14787e-16 0)
(0.929522 -1.80491e-15 0)
(0.932463 -2.20103e-15 0)
(0.930274 -6.8354e-16 0)
(0.907311 -3.24326e-15 0)
(0.773118 -3.41708e-15 0)
(0.361472 -3.06223e-15 0)
(0.0303144 7.55479e-16 0)
(0.000215424 7.80471e-17 0)
(9.5894e-08 9.10726e-16 0)
(2.90723e-12 1.0842e-16 0)
(-4.97781e-17 5.42099e-17 0)
(-1.86451e-16 2.41776e-16 0)
(-1.32436e-19 6.72203e-17 0)
(2.08201e-16 2.60208e-17 0)
(4.36026e-17 6.50519e-18 0)
(-1.3433e-16 7.91465e-17 0)
(6.57843e-17 1.56125e-16 0)
(2.71307e-16 2.02745e-16 0)
(8.66844e-17 2.1684e-17 0)
(-1.77258e-16 0 0)
(-8.64062e-17 0 0)
(-9.54577e-17 0 0)
(-2.04252e-16 -1.0842e-18 0)
(-1.44323e-16 -4.33679e-18 0)
(-2.5618e-16 1.40946e-16 0)
(-1.40289e-16 2.60208e-16 0)
(4.52759e-17 8.13149e-17 0)
(2.53982e-16 0 0)
(3.06126e-17 1.95156e-17 0)
(-2.12555e-16 2.28766e-16 0)
(-3.0835e-16 2.53702e-16 0)
(-2.18607e-16 1.76724e-16 0)
(-1.91903e-16 2.7105e-16 0)
(0 0 0)
(2.30747e-16 0 0)
(5.26568e-16 0 0)
(1.12108e-16 9.75778e-17 0)
(-3.64615e-16 3.44775e-16 0)
(-3.25102e-16 5.70288e-16 0)
(-2.92666e-16 2.4286e-16 0)
(-2.86841e-17 0 0)
(-3.36502e-20 0 0)
(2.42415e-16 0 0)
(5.61163e-16 0 0)
(2.05337e-16 2.1684e-18 0)
(-1.4197e-16 3.46943e-17 0)
(8.10543e-17 2.55871e-16 0)
(3.20054e-16 1.17093e-16 0)
(-4.63336e-17 7.58939e-17 0)
(-4.15123e-16 0 0)
(-1.6677e-16 0 0)
(-7.95178e-17 1.01915e-16 0)
(-2.57985e-16 0 0)
(-1.20986e-18 0 0)
(2.11688e-16 0 0)
(7.68721e-17 9.32411e-17 0)
(1.67392e-16 4.38016e-16 0)
(-1.01751e-16 7.06897e-16 0)
(-3.91677e-16 4.18501e-16 0)
(-3.99066e-16 8.02307e-17 0)
(-1.04251e-16 8.23991e-17 0)
(2.04807e-15 -1.30104e-17 0)
(3.712e-11 -9.88789e-16 0)
(7.46976e-08 3.86625e-15 0)
(1.76474e-05 2.94906e-16 0)
(0.000701852 6.67829e-15 0)
(0.00714288 7.2166e-15 0)
(0.0288305 1.05664e-14 0)
(0.0671059 -1.82304e-15 0)
(0.115651 1.00017e-14 0)
(0.169269 9.16733e-15 0)
(0.225484 -7.31928e-15 0)
(0.283235 3.21518e-14 0)
(0.34203 -6.87012e-15 0)
(0.401624 2.56351e-15 0)
(0.461904 3.30989e-14 0)
(0.52284 1.20649e-14 0)
(0.584454 7.53807e-15 0)
(0.646753 6.03337e-15 0)
(0.709698 1.76343e-14 0)
(0.77274 2.485e-15 0)
(0.834724 3.97419e-15 0)
(0.891007 8.80699e-15 0)
(0.930449 7.2606e-15 0)
(0.940246 7.2163e-15 0)
(0.92442 6.36263e-15 0)
(0.92591 9.78927e-15 0)
(0.927289 6.34397e-15 0)
(0.927428 3.10806e-15 0)
(0.927431 6.93053e-17 0)
(0.927433 -3.44684e-17 0)
(0.927749 8.83861e-16 0)
(0.928309 1.64828e-15 0)
(0.928825 3.99506e-15 0)
(0.929375 6.6408e-15 0)
(0.931413 7.05586e-15 0)
(0.931145 1.11297e-14 0)
(0.923277 6.29573e-15 0)
(0.923442 5.19977e-15 0)
(0.925856 3.0206e-15 0)
(0.929522 -6.0626e-17 0)
(0.932463 -9.58662e-16 0)
(0.930274 8.92598e-16 0)
(0.907311 -8.06386e-16 0)
(0.773118 9.52767e-16 0)
(0.361472 6.72217e-17 0)
(0.0303144 -6.12836e-17 0)
(0.000215424 6.65568e-16 0)
(9.5894e-08 1.84639e-15 0)
(2.90724e-12 3.3068e-16 0)
(-1.301e-17 1.69135e-16 0)
(-2.75346e-16 2.22261e-16 0)
(-7.42387e-17 3.03576e-16 0)
(1.57498e-16 2.98155e-16 0)
(1.71902e-16 2.23345e-16 0)
(7.05676e-17 3.5128e-16 0)
(1.72937e-16 3.48028e-16 0)
(1.5964e-16 1.35525e-16 0)
(-1.5429e-17 -8.02307e-17 0)
(-1.5313e-16 -1.32407e-32 0)
(-9.92501e-17 1.11672e-16 0)
(-1.4887e-16 7.58939e-18 0)
(-2.49526e-16 1.11672e-16 0)
(-1.14832e-16 1.14925e-16 0)
(-7.91606e-17 3.22007e-16 0)
(-1.41909e-16 4.65121e-16 0)
(-5.64561e-18 3.72964e-16 0)
(1.7167e-16 1.95156e-16 0)
(5.61107e-17 6.50519e-17 0)
(-1.6739e-16 2.53702e-16 0)
(-3.72066e-16 4.58616e-16 0)
(-2.97271e-16 3.72964e-16 0)
(-3.94648e-16 4.73795e-16 0)
(-2.1684e-18 -2.1684e-18 0)
(2.80563e-16 -2.1684e-18 0)
(6.14624e-16 -2.1684e-18 0)
(2.23464e-16 3.90311e-17 0)
(-2.72293e-16 2.86228e-16 0)
(-6.50153e-16 1.82145e-16 0)
(-3.3218e-16 -2.1684e-18 0)
(-2.00619e-17 -2.1684e-18 0)
(-9.06259e-19 0 0)
(1.18232e-16 0 0)
(3.80174e-16 -4.33679e-18 0)
(2.02239e-16 -1.53956e-16 0)
(1.77939e-16 2.10334e-16 0)
(1.92909e-16 5.76793e-16 0)
(2.50681e-16 2.99239e-16 0)
(-5.33866e-17 0 0)
(-3.34314e-16 -2.1684e-18 0)
(-8.9422e-17 1.17093e-16 0)
(-9.29742e-17 3.49112e-16 0)
(-2.52733e-16 1.73472e-16 0)
(2.73508e-18 0 0)
(2.58977e-16 1.60461e-16 0)
(8.30008e-17 3.42607e-16 0)
(2.62729e-16 1.60461e-16 0)
(-8.3474e-17 2.66713e-16 0)
(-4.7082e-16 1.19262e-16 0)
(-4.85341e-16 -4.33679e-18 0)
(-1.24756e-16 0 0)
(1.99624e-15 2.81892e-17 0)
(3.71192e-11 -2.4286e-16 0)
(7.46976e-08 3.19188e-15 0)
(1.76474e-05 2.21397e-15 0)
(0.000701852 1.38209e-15 0)
(0.00714288 1.01552e-14 0)
(0.0288305 6.84536e-15 0)
(0.0671059 2.34309e-15 0)
(0.115651 8.45049e-15 0)
(0.169269 1.48137e-14 0)
(0.225484 -1.08847e-14 0)
(0.283235 3.05481e-14 0)
(0.34203 -7.03811e-15 0)
(0.401624 -2.69146e-15 0)
(0.461904 3.28024e-14 0)
(0.52284 1.01973e-14 0)
(0.584454 5.27081e-15 0)
(0.646753 5.77017e-15 0)
(0.709698 1.40357e-14 0)
(0.77274 3.44077e-15 0)
(0.834724 4.28044e-15 0)
(0.891007 4.39491e-15 0)
(0.930449 1.94165e-15 0)
(0.940246 8.05744e-15 0)
(0.92442 1.01189e-14 0)
(0.92591 6.46059e-15 0)
(0.927289 4.59037e-15 0)
(0.927428 2.0044e-15 0)
(0.927431 1.07886e-15 0)
(0.927433 2.66728e-16 0)
(0.927749 -1.23032e-15 0)
(0.928309 1.1649e-15 0)
(0.928825 3.02982e-15 0)
(0.929375 4.80128e-15 0)
(0.931413 7.32245e-15 0)
(0.931145 1.04594e-14 0)
(0.923277 4.39552e-15 0)
(0.923442 4.26971e-15 0)
(0.925856 3.30972e-15 0)
(0.929522 1.36254e-15 0)
(0.932463 1.32226e-15 0)
(0.930274 1.14111e-15 0)
(0.907311 -6.7824e-16 0)
(0.773118 2.17187e-15 0)
(0.361472 2.08306e-15 0)
(0.0303144 -7.62876e-16 0)
(0.000215424 3.2899e-15 0)
(9.5894e-08 6.58108e-16 0)
(2.90724e-12 6.7654e-16 0)
(-5.47044e-17 3.3068e-16 0)
(-2.18123e-16 3.7188e-16 0)
(-3.65486e-17 5.52941e-16 0)
(1.84008e-16 6.08235e-16 0)
(3.39555e-16 4.51026e-16 0)
(2.66179e-16 5.72457e-16 0)
(3.15829e-17 4.67289e-16 0)
(-1.45436e-16 2.58039e-16 0)
(-2.78293e-17 1.36609e-16 0)
(1.39324e-17 1.71303e-16 0)
(-1.45613e-16 1.82145e-16 0)
(-2.49484e-16 3.14417e-17 0)
(-1.47317e-16 1.32272e-16 0)
(-4.56202e-17 2.92734e-17 0)
(3.76568e-17 1.65882e-16 0)
(-1.60684e-16 3.61038e-16 0)
(-1.84279e-16 5.70288e-16 0)
(-4.74441e-17 4.38016e-16 0)
(-1.26099e-16 2.59123e-16 0)
(-5.62453e-17 1.4203e-16 0)
(-2.17465e-16 2.7105e-16 0)
(-4.27155e-16 2.03829e-16 0)
(-6.24498e-16 2.5045e-16 0)
(-2.1684e-18 2.1684e-18 0)
(2.77899e-16 2.1684e-18 0)
(6.11506e-16 2.1684e-18 0)
(1.97055e-16 1.66967e-16 0)
(-5.34783e-16 -1.53956e-16 0)
(-6.0957e-16 -5.42099e-16 0)
(-2.76875e-16 -2.40692e-16 0)
(-7.14145e-18 2.1684e-18 0)
(-8.73312e-18 0 0)
(1.39865e-16 -2.1684e-18 0)
(4.03831e-16 3.25259e-17 0)
(2.26512e-16 1.77809e-16 0)
(4.05167e-16 4.11995e-17 0)
(2.25293e-16 2.21176e-16 0)
(2.69599e-16 3.90311e-17 0)
(-5.60444e-17 9.32411e-17 0)
(-3.83376e-16 2.1684e-18 0)
(-1.08089e-16 2.1684e-18 0)
(-1.02417e-16 -1.51788e-17 0)
(-2.84617e-16 0 0)
(5.1411e-17 0 0)
(3.3192e-16 2.60208e-16 0)
(6.77229e-17 3.46943e-17 0)
(-2.19564e-17 -9.97462e-17 0)
(-5.40996e-18 -3.70796e-16 0)
(-1.91612e-16 -1.51788e-16 0)
(-2.28965e-16 -1.17093e-16 0)
(4.93255e-17 0 0)
(2.12952e-15 3.46943e-17 0)
(3.71186e-11 -1.28369e-15 0)
(7.46976e-08 -2.4698e-15 0)
(1.76474e-05 3.95088e-15 0)
(0.000701852 -2.76635e-15 0)
(0.00714288 6.80647e-15 0)
(0.0288305 2.27327e-15 0)
(0.0671059 5.03174e-15 0)
(0.115651 2.37476e-15 0)
(0.169269 1.80738e-14 0)
(0.225484 -1.33952e-14 0)
(0.283235 2.57272e-14 0)
(0.34203 -1.99837e-15 0)
(0.401624 -7.57955e-15 0)
(0.461904 2.97911e-14 0)
(0.52284 7.8457e-15 0)
(0.584454 3.1915e-15 0)
(0.646753 4.99991e-15 0)
(0.709698 8.46316e-15 0)
(0.77274 2.3419e-15 0)
(0.834724 2.73878e-15 0)
(0.891007 3.60966e-15 0)
(0.930449 1.16301e-15 0)
(0.940246 1.94936e-15 0)
(0.92442 5.75852e-15 0)
(0.92591 3.82458e-16 0)
(0.927289 2.49772e-15 0)
(0.927428 2.20159e-15 0)
(0.927431 7.01357e-16 0)
(0.927433 5.08651e-16 0)
(0.927749 -3.12862e-15 0)
(0.928309 -9.50435e-16 0)
(0.928825 2.00934e-15 0)
(0.929375 2.47481e-15 0)
(0.931413 8.83182e-15 0)
(0.931145 3.42984e-15 0)
(0.923277 2.90067e-15 0)
(0.923442 1.76793e-15 0)
(0.925856 4.02815e-15 0)
(0.929522 4.05269e-15 0)
(0.932463 1.60648e-15 0)
(0.930274 2.54201e-15 0)
(0.907311 -1.33043e-15 0)
(0.773118 3.15423e-15 0)
(0.361472 1.37278e-15 0)
(0.0303144 3.57136e-16 0)
(0.000215424 5.89798e-15 0)
(9.5894e-08 -1.2761e-15 0)
(2.90648e-12 8.80369e-16 0)
(1.12913e-16 2.4286e-16 0)
(-2.46044e-17 3.83806e-16 0)
(1.13107e-16 5.64867e-16 0)
(8.57175e-17 6.98224e-16 0)
(2.10523e-16 5.76793e-16 0)
(7.09362e-17 3.77301e-16 0)
(-1.26406e-16 2.79723e-16 0)
(-1.51669e-16 3.78385e-16 0)
(-2.97247e-17 3.80554e-16 0)
(-7.4266e-18 3.56701e-16 0)
(-3.35207e-16 2.11419e-16 0)
(-4.83593e-16 1.70219e-16 0)
(-3.17221e-16 -3.68627e-17 0)
(-9.57559e-18 -1.34441e-16 0)
(2.23623e-16 -1.18178e-16 0)
(8.54373e-17 1.19262e-17 0)
(5.12412e-17 3.57785e-16 0)
(3.80134e-17 6.02814e-16 0)
(-1.76038e-16 4.67289e-16 0)
(-2.76372e-16 9.8662e-17 0)
(-3.87048e-16 -1.35525e-16 0)
(-5.63112e-16 -7.48097e-17 0)
(-7.20992e-16 -1.94071e-16 0)
(0 0 0)
(1.28251e-16 0 0)
(3.00967e-16 -1.12757e-16 0)
(-8.93856e-17 -3.75133e-16 0)
(-6.17895e-16 -5.5511e-16 0)
(-3.07908e-16 -2.4286e-16 0)
(-8.43617e-17 -2.1684e-17 0)
(2.17618e-17 0 0)
(-3.39677e-17 0 0)
(1.61309e-16 2.1684e-18 0)
(4.12213e-16 2.53702e-16 0)
(2.23361e-16 4.33679e-16 0)
(-2.92808e-17 1.79977e-16 0)
(8.72968e-17 -1.19262e-16 0)
(3.02401e-16 -6.50519e-17 0)
(-5.2649e-17 -9.54094e-17 0)
(-4.07186e-16 0 0)
(-1.38746e-16 -9.97462e-17 0)
(-2.06018e-17 -3.77301e-16 0)
(-3.30468e-17 -1.36609e-16 0)
(2.21874e-16 0 0)
(5.66e-17 1.73472e-17 0)
(-1.8348e-16 -2.25513e-16 0)
(-1.84743e-17 -4.33679e-17 0)
(7.53278e-19 -1.14925e-16 0)
(-6.76914e-18 0 0)
(-4.89227e-18 1.2143e-16 0)
(-1.93227e-18 0 0)
(1.98457e-15 -2.1684e-18 0)
(3.71161e-11 1.10588e-16 0)
(7.46976e-08 -5.31908e-15 0)
(1.76474e-05 6.44023e-16 0)
(0.000701852 -2.63183e-15 0)
(0.00714288 3.40105e-15 0)
(0.0288305 -3.49101e-15 0)
(0.0671059 7.17163e-15 0)
(0.115651 -2.04081e-15 0)
(0.169269 1.53641e-14 0)
(0.225484 -1.46899e-14 0)
(0.283235 2.06292e-14 0)
(0.34203 9.04232e-16 0)
(0.401624 -1.07119e-14 0)
(0.461904 2.23498e-14 0)
(0.52284 5.61465e-15 0)
(0.584454 3.49441e-16 0)
(0.646753 1.79792e-15 0)
(0.709698 5.96408e-15 0)
(0.77274 2.94923e-15 0)
(0.834724 2.89886e-15 0)
(0.891007 3.88941e-15 0)
(0.930449 1.99848e-16 0)
(0.940246 8.6656e-16 0)
(0.92442 2.93669e-16 0)
(0.92591 -4.39177e-16 0)
(0.927289 1.77996e-15 0)
(0.927428 2.41406e-16 0)
(0.927431 -1.99484e-15 0)
(0.927433 -9.56419e-16 0)
(0.927749 -5.97541e-15 0)
(0.928309 -2.61301e-15 0)
(0.928825 -1.79165e-16 0)
(0.929375 -5.02558e-16 0)
(0.931413 7.04164e-15 0)
(0.931145 -3.09736e-16 0)
(0.923277 2.76843e-15 0)
(0.923442 -1.03666e-15 0)
(0.925856 2.67736e-15 0)
(0.929522 1.87941e-15 0)
(0.932463 -9.56614e-16 0)
(0.930274 1.70168e-15 0)
(0.907311 -1.0731e-16 0)
(0.773118 3.91319e-15 0)
(0.361472 5.71789e-16 0)
(0.0303144 -1.52047e-15 0)
(0.000215424 4.84976e-15 0)
(9.5894e-08 -1.06794e-15 0)
(2.90587e-12 2.9707e-16 0)
(1.48008e-16 4.44521e-17 0)
(6.07804e-17 1.43114e-16 0)
(1.6852e-16 3.05744e-16 0)
(4.27276e-17 4.32595e-16 0)
(9.479e-18 3.76217e-16 0)
(-4.83326e-17 1.44198e-16 0)
(-1.63614e-16 3.79469e-17 0)
(1.69456e-17 2.08166e-16 0)
(1.37434e-16 4.11995e-16 0)
(-4.20774e-17 1.87566e-16 0)
(-4.20478e-16 4.87889e-17 0)
(-6.66673e-16 8.78201e-17 0)
(-4.9339e-16 -8.67359e-17 0)
(-1.57152e-16 5.42099e-18 0)
(8.71396e-17 -2.53702e-16 0)
(3.38731e-16 -2.15755e-16 0)
(3.43923e-16 6.72203e-17 0)
(1.0033e-16 3.56701e-16 0)
(-2.54219e-16 2.61292e-16 0)
(-5.09778e-16 -8.34833e-17 0)
(-5.17461e-16 -3.08997e-16 0)
(-4.14788e-16 -2.49366e-16 0)
(-4.95479e-16 -3.5128e-16 0)
(0 0 0)
(1.25204e-16 -5.42099e-17 0)
(-6.24056e-18 -4.18501e-16 0)
(-7.30354e-17 -7.89296e-16 0)
(-2.7148e-16 -4.79216e-16 0)
(-9.71407e-17 -6.50519e-17 0)
(1.27151e-16 0 0)
(7.70349e-17 0 0)
(-5.89455e-17 0 0)
(1.45779e-16 0 0)
(4.11798e-16 3.90311e-17 0)
(8.38046e-18 1.90819e-16 0)
(-3.36536e-16 0 0)
(-4.7873e-17 -5.20415e-17 0)
(1.97771e-16 0 0)
(2.7157e-17 -9.32411e-17 0)
(-2.34017e-16 0 0)
(-1.65719e-16 0 0)
(-2.95743e-17 -1.14925e-16 0)
(2.43004e-18 0 0)
(2.11269e-16 0 0)
(1.47493e-18 -9.32411e-17 0)
(-1.70094e-16 -4.55363e-17 0)
(-1.93787e-17 0 0)
(4.68809e-19 0 0)
(-1.81962e-17 0 0)
(-7.43284e-18 0 0)
(-4.74911e-18 0 0)
(1.95322e-15 0 0)
(3.71186e-11 1.49619e-15 0)
(7.46976e-08 -3.28295e-15 0)
(1.76474e-05 -6.63539e-16 0)
(0.000701852 -2.01564e-15 0)
(0.00714288 5.03286e-15 0)
(0.0288305 -7.89866e-15 0)
(0.0671059 1.01771e-14 0)
(0.115651 -3.66387e-15 0)
(0.169269 1.15924e-14 0)
(0.225484 -1.22388e-14 0)
(0.283235 1.4116e-14 0)
(0.34203 8.76477e-17 0)
(0.401624 -9.07327e-15 0)
(0.461904 1.39786e-14 0)
(0.52284 4.52583e-15 0)
(0.584454 -8.90481e-16 0)
(0.646753 2.97072e-16 0)
(0.709698 6.92281e-15 0)
(0.77274 2.02077e-16 0)
(0.834724 2.54738e-15 0)
(0.891007 1.4662e-15 0)
(0.930449 2.45085e-15 0)
(0.940246 2.75993e-15 0)
(0.92442 -6.88921e-16 0)
(0.92591 1.08622e-15 0)
(0.927289 2.22439e-15 0)
(0.927428 -8.01505e-16 0)
(0.927431 -1.41549e-15 0)
(0.927433 -8.46893e-16 0)
(0.927749 -3.05021e-15 0)
(0.928309 -1.84879e-15 0)
(0.928825 -1.01793e-15 0)
(0.929375 -2.29689e-15 0)
(0.931413 2.45489e-15 0)
(0.931145 2.0278e-16 0)
(0.923277 1.55639e-16 0)
(0.923442 -1.53979e-16 0)
(0.925856 1.31059e-15 0)
(0.929522 -9.81319e-17 0)
(0.932463 -7.57405e-16 0)
(0.930274 2.8848e-16 0)
(0.907311 1.00017e-15 0)
(0.773118 2.41789e-15 0)
(0.361472 1.11361e-15 0)
(0.0303144 -2.14493e-15 0)
(0.000215424 9.18138e-16 0)
(9.5894e-08 -1.04083e-16 0)
(2.90582e-12 -3.79469e-17 0)
(5.5608e-17 0 0)
(9.76371e-17 2.1684e-18 0)
(2.46273e-16 0 0)
(9.15305e-17 0 0)
(1.7642e-18 0 0)
(-8.86476e-18 0 0)
(-1.19714e-16 0 0)
(7.18182e-17 3.90311e-17 0)
(2.16721e-16 2.0925e-16 0)
(1.10257e-17 7.58939e-18 0)
(-3.87425e-16 0 0)
(-6.46009e-16 0 0)
(-4.55922e-16 0 0)
(-2.81351e-16 -1.6263e-17 0)
(4.38272e-17 -9.8662e-17 0)
(3.64808e-16 -9.8662e-17 0)
(4.31563e-16 0 0)
(1.6066e-16 0 0)
(-2.83953e-16 2.38524e-17 0)
(-5.52991e-16 5.85467e-17 0)
(-4.76532e-16 -1.0083e-16 0)
(-3.28549e-16 -6.72203e-17 0)
(-2.91649e-16 -1.44198e-16 0)
(2.36355e-16 1.99492e-16 0)
(2.0751e-16 0 0)
(-1.21243e-16 -1.7564e-16 0)
(-8.9245e-17 -4.44521e-16 0)
(-1.61865e-17 -1.58293e-16 0)
(6.94781e-17 0 0)
(3.38595e-16 1.12757e-16 0)
(1.27437e-16 3.05744e-16 0)
(-5.82514e-17 1.7564e-16 0)
(1.78141e-16 -2.1684e-18 0)
(4.28082e-16 0 0)
(5.80256e-17 0 0)
(-3.09656e-16 0 0)
(-2.10488e-17 -7.37255e-17 0)
(2.14885e-16 0 0)
(2.56816e-17 9.32411e-17 0)
(-2.53183e-16 8.02307e-17 0)
(-2.77564e-16 0 0)
(-6.64075e-17 0 0)
(4.13849e-17 0 0)
(2.23821e-16 0 0)
(1.29124e-18 9.32411e-17 0)
(-2.05343e-16 0 0)
(-3.06463e-17 0 0)
(-1.18391e-17 0 0)
(-6.30969e-17 0 0)
(-2.62109e-17 0 0)
(-1.2263e-17 0 0)
(1.90335e-15 2.1684e-18 0)
(3.71194e-11 1.14925e-16 0)
(7.46976e-08 -2.81892e-17 0)
(1.76474e-05 -9.95309e-16 0)
(0.000701852 1.54915e-15 0)
(0.00714288 4.99359e-15 0)
(0.0288305 -1.2353e-14 0)
(0.0671059 1.68631e-14 0)
(0.115651 -5.81001e-15 0)
(0.169269 7.53599e-15 0)
(0.225484 -8.87218e-15 0)
(0.283235 8.62149e-15 0)
(0.34203 -1.32202e-15 0)
(0.401624 -5.25497e-15 0)
(0.461904 6.96732e-15 0)
(0.52284 2.60834e-15 0)
(0.584454 -5.14581e-16 0)
(0.646753 -3.13232e-15 0)
(0.709698 4.93239e-15 0)
(0.77274 -3.76409e-15 0)
(0.834724 2.5729e-15 0)
(0.891007 2.65878e-15 0)
(0.930449 4.97767e-15 0)
(0.940246 2.94174e-15 0)
(0.92442 2.83226e-16 0)
(0.92591 6.75242e-16 0)
(0.927289 -8.90772e-16 0)
(0.927428 -2.82912e-15 0)
(0.927431 -1.12549e-15 0)
(0.927433 -1.22154e-15 0)
(0.927749 -1.69948e-15 0)
(0.928309 -9.31031e-16 0)
(0.928825 -1.7266e-15 0)
(0.929375 -1.62362e-15 0)
(0.931413 -3.36797e-16 0)
(0.931145 1.61789e-15 0)
(0.923277 -2.14537e-15 0)
(0.923442 -4.96957e-16 0)
(0.925856 -3.90137e-16 0)
(0.929522 7.35732e-16 0)
(0.932463 -4.65504e-16 0)
(0.930274 -9.31541e-16 0)
(0.907311 -7.63671e-16 0)
(0.773118 -7.35754e-16 0)
(0.361472 2.18673e-16 0)
(0.0303144 -6.46648e-16 0)
(0.000215424 -6.41721e-16 0)
(9.5894e-08 -9.75778e-18 0)
(2.90591e-12 -1.97324e-16 0)
(1.7969e-16 -1.7564e-16 0)
(6.96081e-18 -4.33679e-17 0)
(-2.24565e-17 -1.84314e-16 0)
(2.62478e-19 -3.24175e-16 0)
(7.39725e-17 -2.98155e-16 0)
(2.09957e-16 -2.5045e-16 0)
(1.01173e-16 -1.14925e-16 0)
(1.54024e-16 4.55363e-17 0)
(1.23696e-16 3.57785e-17 0)
(-9.42048e-18 0 0)
(-3.4619e-16 0 0)
(-5.86273e-16 5.09573e-17 0)
(-5.51751e-16 1.53956e-16 0)
(-3.50897e-16 -4.55363e-17 0)
(6.92786e-17 -1.0842e-18 0)
(4.27834e-16 0 0)
(5.01204e-16 -1.17093e-16 0)
(3.09951e-16 -2.43945e-16 0)
(-5.43933e-17 -3.03576e-17 0)
(-4.42578e-16 2.27682e-16 0)
(-6.50013e-16 1.30104e-16 0)
(-5.02136e-16 2.11419e-16 0)
(-4.06574e-16 2.01661e-16 0)
(5.65951e-16 4.79216e-16 0)
(3.0848e-16 1.84314e-16 0)
(-1.55615e-16 1.47451e-16 0)
(-2.74502e-16 -1.53956e-16 0)
(-6.46497e-17 2.1684e-18 0)
(2.51986e-16 2.38524e-17 0)
(4.10477e-16 3.90311e-16 0)
(1.53419e-16 6.50519e-16 0)
(-3.56385e-17 4.64037e-16 0)
(2.17805e-16 2.12503e-16 0)
(3.42844e-16 1.36609e-16 0)
(7.66043e-17 -1.36609e-16 0)
(-2.257e-16 -7.80623e-17 0)
(-1.43807e-17 -2.66713e-16 0)
(2.22827e-16 -6.28835e-17 0)
(5.25146e-18 3.46943e-17 0)
(-2.78269e-16 3.20923e-16 0)
(-4.04631e-16 1.40946e-16 0)
(-1.34061e-16 0 0)
(6.45376e-17 0 0)
(2.22035e-16 0 0)
(4.77198e-18 -3.03576e-17 0)
(-2.37459e-16 0 0)
(-5.39648e-17 0 0)
(-7.92959e-17 0 0)
(-1.61097e-16 0 0)
(-7.71894e-17 0 0)
(-2.90485e-17 0 0)
(1.8349e-15 -1.51788e-17 0)
(3.71183e-11 -9.606e-16 0)
(7.46976e-08 2.90348e-15 0)
(1.76474e-05 -3.43696e-15 0)
(0.000701852 9.81565e-15 0)
(0.00714288 3.54285e-15 0)
(0.0288305 -1.34274e-14 0)
(0.0671059 1.99065e-14 0)
(0.115651 -7.09075e-15 0)
(0.169269 2.28838e-15 0)
(0.225484 -4.94187e-15 0)
(0.283235 5.18121e-15 0)
(0.34203 -2.70393e-15 0)
(0.401624 -5.5494e-16 0)
(0.461904 -8.42007e-16 0)
(0.52284 -1.63667e-16 0)
(0.584454 -3.19332e-16 0)
(0.646753 -5.78178e-15 0)
(0.709698 3.12076e-15 0)
(0.77274 -4.75809e-15 0)
(0.834724 1.98246e-15 0)
(0.891007 3.89922e-15 0)
(0.930449 5.20306e-15 0)
(0.940246 3.98882e-15 0)
(0.92442 1.51898e-15 0)
(0.92591 1.0257e-15 0)
(0.927289 -2.47264e-15 0)
(0.927428 -4.28901e-15 0)
(0.927431 -5.65302e-16 0)
(0.927433 -1.94054e-15 0)
(0.927749 -1.38714e-15 0)
(0.928309 6.63806e-17 0)
(0.928825 -1.70625e-15 0)
(0.929375 -2.13897e-16 0)
(0.931413 -1.66133e-15 0)
(0.931145 1.76162e-15 0)
(0.923277 -1.37379e-15 0)
(0.923442 8.08521e-17 0)
(0.925856 -1.894e-15 0)
(0.929522 -6.77675e-16 0)
(0.932463 -6.43205e-16 0)
(0.930274 -2.34371e-15 0)
(0.907311 -2.4874e-15 0)
(0.773118 -3.1461e-15 0)
(0.361472 -1.32338e-15 0)
(0.0303144 3.66962e-15 0)
(0.000215424 -3.99124e-15 0)
(9.5894e-08 5.97393e-16 0)
(2.90598e-12 -5.59446e-16 0)
(1.85917e-16 -3.68627e-16 0)
(-1.59352e-18 -2.52618e-16 0)
(-1.20636e-16 -4.03322e-16 0)
(4.62794e-18 -5.63783e-16 0)
(1.16333e-16 -5.32341e-16 0)
(2.8016e-16 -4.803e-16 0)
(1.63647e-16 -3.05744e-16 0)
(2.06017e-16 -1.0083e-16 0)
(1.61913e-16 0 0)
(2.41124e-17 0 0)
(-1.11938e-16 -6.72203e-17 0)
(-3.92135e-16 1.26851e-16 0)
(-5.87276e-16 3.44775e-16 0)
(-3.52682e-16 1.56125e-16 0)
(3.89511e-17 2.60208e-17 0)
(3.75302e-16 9.10727e-17 0)
(5.27043e-16 -2.91649e-16 0)
(3.60366e-16 -4.67289e-16 0)
(1.07814e-16 -2.13587e-16 0)
(-3.64209e-16 7.58939e-17 0)
(-6.22289e-16 3.31765e-16 0)
(-5.21234e-16 4.42353e-16 0)
(-6.23414e-16 4.21753e-16 0)
(7.80623e-16 2.49366e-16 0)
(3.84322e-16 1.04083e-16 0)
(-1.52497e-16 1.30104e-16 0)
(-3.25895e-16 2.14671e-16 0)
(1.76418e-17 1.01915e-16 0)
(3.96561e-16 2.62376e-16 0)
(5.92806e-16 2.12503e-16 0)
(2.27351e-16 3.40438e-16 0)
(-2.17497e-16 2.8406e-16 0)
(2.82621e-16 2.99239e-16 0)
(-1.6016e-17 2.1684e-18 0)
(-1.43769e-16 -2.53702e-16 0)
(-2.04361e-16 -8.67359e-18 0)
(-3.99905e-17 9.54094e-17 0)
(2.43799e-16 1.0842e-17 0)
(2.07808e-16 -1.66967e-16 0)
(-1.22027e-16 1.17093e-16 0)
(-4.92799e-16 2.34187e-16 0)
(-2.01573e-16 8.67359e-17 0)
(6.61172e-17 1.92987e-16 0)
(-1.69526e-16 3.68627e-17 0)
(-1.06325e-16 -2.08166e-16 0)
(1.32032e-16 3.68627e-17 0)
(5.58287e-17 2.60208e-16 0)
(-2.11014e-16 1.17093e-16 0)
(-3.2559e-16 2.38524e-17 0)
(-1.8745e-16 0 0)
(-7.57889e-17 0 0)
(1.78793e-15 1.30104e-17 0)
(3.71168e-11 -1.64148e-15 0)
(7.46976e-08 3.12683e-15 0)
(1.76474e-05 -3.19626e-15 0)
(0.000701852 1.16794e-14 0)
(0.00714288 5.27065e-15 0)
(0.0288305 -1.34274e-14 0)
(0.0671059 1.95793e-14 0)
(0.115651 -8.05071e-15 0)
(0.169269 -6.06892e-16 0)
(0.225484 -2.15614e-15 0)
(0.283235 3.40008e-15 0)
(0.34203 -3.81414e-15 0)
(0.401624 4.86497e-15 0)
(0.461904 -6.38427e-15 0)
(0.52284 -1.55398e-15 0)
(0.584454 -6.84284e-16 0)
(0.646753 -5.02991e-15 0)
(0.709698 2.48675e-16 0)
(0.77274 -3.78375e-15 0)
(0.834724 4.58204e-16 0)
(0.891007 -7.85243e-16 0)
(0.930449 4.80145e-15 0)
(0.940246 4.4377e-15 0)
(0.92442 2.66708e-15 0)
(0.92591 -5.37722e-16 0)
(0.927289 -1.27743e-15 0)
(0.927428 -3.50309e-15 0)
(0.927431 -5.03023e-16 0)
(0.927433 -2.6254e-15 0)
(0.927749 -6.71918e-16 0)
(0.928309 -5.90958e-16 0)
(0.928825 -1.30322e-15 0)
(0.929375 -9.23555e-17 0)
(0.931413 -1.97457e-15 0)
(0.931145 5.88015e-16 0)
(0.923277 -8.68219e-16 0)
(0.923442 7.67322e-17 0)
(0.925856 -2.92423e-15 0)
(0.929522 -4.14671e-15 0)
(0.932463 -9.66344e-16 0)
(0.930274 -2.96781e-15 0)
(0.907311 -3.02655e-15 0)
(0.773118 -4.11048e-15 0)
(0.361472 -3.32869e-15 0)
(0.0303144 4.27718e-15 0)
(0.000215424 -3.10129e-15 0)
(9.5894e-08 7.41592e-16 0)
(2.9065e-12 -3.49112e-16 0)
(3.16106e-16 -2.01661e-16 0)
(-7.07229e-17 -1.10588e-16 0)
(-1.82565e-16 -2.26597e-16 0)
(-1.93047e-18 -2.90565e-16 0)
(1.56604e-16 -2.90565e-16 0)
(3.43842e-16 -2.64544e-16 0)
(2.42199e-16 -2.7105e-16 0)
(2.75741e-16 -1.12757e-16 0)
(1.95266e-16 0 0)
(4.62449e-17 -9.43252e-17 0)
(6.44344e-17 -2.39608e-16 0)
(-1.09899e-16 -8.67359e-18 0)
(-3.4403e-16 2.32018e-16 0)
(-2.76176e-16 3.5128e-16 0)
(-7.51905e-17 1.52872e-16 0)
(1.8771e-16 3.79469e-17 0)
(2.67405e-16 -1.51788e-16 0)
(4.49304e-16 -2.73218e-16 0)
(2.22919e-16 -1.10588e-16 0)
(-1.92626e-16 -1.05167e-16 0)
(-4.66502e-16 1.72388e-16 0)
(-5.87265e-16 2.48281e-16 0)
(-7.65444e-16 2.89481e-16 0)
(5.65951e-16 -2.1684e-18 0)
(2.64728e-16 2.55871e-16 0)
(-8.87444e-17 3.12249e-16 0)
(-3.81126e-17 4.96563e-16 0)
(1.96268e-16 3.62122e-16 0)
(4.29199e-16 5.83299e-16 0)
(4.11348e-16 3.46943e-16 0)
(1.14213e-16 8.45675e-17 0)
(-3.28029e-17 1.97324e-16 0)
(-8.24365e-17 -6.93887e-17 0)
(-3.25148e-16 -3.23091e-16 0)
(-7.48528e-17 -7.15571e-17 0)
(-2.09041e-16 2.2985e-16 0)
(7.73151e-18 4.64037e-16 0)
(2.30712e-16 2.4286e-16 0)
(9.01239e-17 1.51788e-17 0)
(-3.91494e-17 1.32272e-16 0)
(-3.10404e-16 4.03322e-16 0)
(-8.18807e-17 2.99239e-16 0)
(6.77631e-17 4.81384e-16 0)
(-1.70364e-16 2.49366e-16 0)
(-1.13863e-16 6.28835e-17 0)
(1.47139e-16 2.68881e-16 0)
(1.52366e-16 5.78962e-16 0)
(-2.01313e-16 3.75133e-16 0)
(-5.69869e-16 2.60208e-16 0)
(-4.07875e-16 2.81892e-17 0)
(-1.24765e-16 6.50519e-17 0)
(1.83609e-15 1.6263e-16 0)
(3.71152e-11 -5.78962e-16 0)
(7.46976e-08 4.42353e-16 0)
(1.76474e-05 -5.68128e-16 0)
(0.000701852 2.88785e-15 0)
(0.00714288 7.95179e-15 0)
(0.0288305 -1.29041e-14 0)
(0.0671059 1.17809e-14 0)
(0.115651 -5.58738e-15 0)
(0.169269 -7.38552e-16 0)
(0.225484 1.5608e-15 0)
(0.283235 1.53579e-15 0)
(0.34203 -5.17706e-15 0)
(0.401624 9.5758e-15 0)
(0.461904 -1.0052e-14 0)
(0.52284 -4.81699e-15 0)
(0.584454 -6.06732e-16 0)
(0.646753 -4.0816e-15 0)
(0.709698 -2.59772e-15 0)
(0.77274 -4.66415e-15 0)
(0.834724 7.38926e-16 0)
(0.891007 -9.60695e-16 0)
(0.930449 5.25063e-15 0)
(0.940246 1.7373e-15 0)
(0.92442 1.74809e-15 0)
(0.92591 -2.03238e-15 0)
(0.927289 -1.40822e-15 0)
(0.927428 -3.22797e-15 0)
(0.927431 -2.94851e-15 0)
(0.927433 -2.59931e-15 0)
(0.927749 3.85172e-16 0)
(0.928309 -1.83177e-15 0)
(0.928825 -6.10543e-16 0)
(0.929375 -8.0841e-16 0)
(0.931413 2.71482e-16 0)
(0.931145 4.66056e-16 0)
(0.923277 -2.46631e-15 0)
(0.923442 -1.03357e-15 0)
(0.925856 -1.18123e-15 0)
(0.929522 -3.94583e-15 0)
(0.932463 -1.417e-15 0)
(0.930274 -7.70647e-16 0)
(0.907311 -1.53568e-15 0)
(0.773118 -2.12951e-15 0)
(0.361472 -1.7591e-15 0)
(0.0303144 -6.33969e-16 0)
(0.000215424 1.5436e-15 0)
(9.5894e-08 1.25225e-15 0)
(2.90677e-12 5.85467e-16 0)
(9.01996e-17 1.73472e-17 0)
(-1.31417e-16 -6.17993e-17 0)
(-5.60594e-17 1.04083e-16 0)
(1.18832e-16 1.68051e-16 0)
(1.58257e-17 6.50519e-17 0)
(1.10352e-16 6.28835e-17 0)
(2.62827e-16 -4.22837e-17 0)
(2.93107e-16 -1.0842e-17 0)
(1.03408e-16 -7.58939e-18 0)
(-5.77139e-17 -1.68051e-16 0)
(8.07415e-17 -5.63783e-17 0)
(1.18484e-16 0 0)
(-5.52872e-17 -1.95156e-17 0)
(-2.01798e-16 1.5504e-16 0)
(-1.30791e-16 5.31257e-17 0)
(4.40586e-17 1.86482e-16 0)
(2.01113e-16 2.32018e-16 0)
(3.28813e-16 8.56517e-17 0)
(1.02984e-16 -1.43114e-16 0)
(-2.60605e-16 -2.40692e-16 0)
(-4.83541e-16 -1.19262e-17 0)
(-5.34214e-16 3.46943e-17 0)
(-6.77624e-16 1.22514e-16 0)
(7.69781e-16 -2.25513e-16 0)
(3.77852e-16 -9.97462e-17 0)
(-8.3463e-17 -3.25259e-17 0)
(-1.21588e-16 2.23345e-16 0)
(2.31987e-16 1.82145e-16 0)
(5.72017e-16 2.9707e-16 0)
(2.22249e-16 -3.90311e-17 0)
(-5.6158e-17 -3.96817e-16 0)
(-2.57684e-16 -2.38524e-16 0)
(-4.49373e-16 -4.35848e-16 0)
(-1.09881e-16 -9.97462e-17 0)
(1.78814e-16 1.99492e-16 0)
(-2.58176e-17 4.98731e-17 0)
(-2.10495e-16 2.47197e-16 0)
(-3.52677e-17 -4.33679e-18 0)
(2.71973e-16 -6.72203e-17 0)
(1.80456e-16 -1.60461e-16 0)
(-6.09379e-18 1.95156e-17 0)
(8.66778e-18 4.33679e-18 0)
(5.32178e-17 5.63783e-17 0)
(-1.31798e-16 -1.19262e-16 0)
(-9.32299e-17 4.33679e-18 0)
(1.48742e-16 8.89043e-17 0)
(4.44812e-17 2.12503e-16 0)
(-3.26554e-16 8.67359e-18 0)
(-6.99186e-16 -2.1684e-18 0)