/*--------------------------------*- C++ -*----------------------------------*\
| =========                 |                                                 |
| \\      /  F ield         | OpenFOAM: The Open Source CFD Toolbox           |
|  \\    /   O peration     | Version:  4.1                                   |
|   \\  /    A nd           | Web:      www.OpenFOAM.org                      |
|    \\/     M anipulation  |                                                 |
\*---------------------------------------------------------------------------*/
FoamFile
{
    version     2.0;
    format      ascii;
    class       volVectorField;
    location    "0.1";
    object      U;
}
// * * * * * * * * * * * * * * * * * * * * * * * * * * * * * * * * * * * * * //

dimensions      [0 1 -1 0 0 0 0];

internalField   nonuniform List<vector> 
10000
(
(0 0 0)
(2.58928e-17 0 0)
(1.36514e-16 0 0)
(2.55315e-17 9.97462e-17 0)
(-7.38942e-17 0 0)
(-2.46365e-17 0 0)
(-4.76785e-17 0 0)
(-1.01813e-18 0 0)
(5.76413e-32 0 0)
(8.23339e-17 1.0842e-16 0)
(2.80031e-16 0 0)
(-1.45113e-17 -1.47451e-16 0)
(-3.08459e-16 0 0)
(-2.49147e-17 0 0)
(1.47011e-16 0 0)
(5.10071e-18 1.14925e-16 0)
(-1.41728e-16 0 0)
(-1.39297e-17 0 0)
(-6.08066e-20 0 0)
(-4.08867e-18 0 0)
(4.3165e-21 0 0)
(-1.27709e-18 9.32411e-17 0)
(2.35088e-18 0 0)
(3.5319e-17 0 0)
(-1.30494e-18 0 0)
(-4.26232e-17 0 0)
(-2.4642e-16 -1.17093e-16 0)
(-2.87378e-19 7.58939e-17 0)
(2.31361e-16 0 0)
(4.92857e-18 1.25767e-16 0)
(-1.4568e-16 0 0)
(-3.99233e-22 -9.97462e-17 0)
(7.74998e-17 -2.1684e-18 0)
(-1.06982e-16 0 0)
(5.07511e-18 3.68627e-17 0)
(2.169e-17 2.77555e-16 0)
(-9.06944e-17 9.54094e-17 0)
(2.41538e-16 0 0)
(2.01753e-12 -3.14417e-16 0)
(1.27783e-08 1.68918e-15 0)
(7.60276e-06 -3.10083e-16 0)
(0.000602079 1.79852e-15 0)
(0.00965119 5.10272e-15 0)
(0.0503303 -1.40236e-15 0)
(0.132949 1.11844e-15 0)
(0.243449 -7.68438e-15 0)
(0.367095 -4.61844e-15 0)
(0.499315 4.70506e-15 0)
(0.636736 4.8171e-16 0)
(0.778704 -4.27255e-15 0)
(0.904647 2.95733e-15 0)
(0.952124 5.15345e-15 0)
(0.928227 5.31183e-15 0)
(0.931609 5.68818e-15 0)
(0.935485 2.71685e-15 0)
(0.948839 1.08188e-15 0)
(0.959528 1.0565e-15 0)
(0.899997 -2.63128e-16 0)
(0.669066 -8.00517e-16 0)
(0.198876 -1.95116e-16 0)
(0.00758321 1.31411e-15 0)
(2.30568e-05 1.34438e-15 0)
(4.10389e-09 8.67359e-18 0)
(1.16293e-13 -1.6263e-17 0)
(-9.85548e-17 -3.62122e-16 0)
(-1.88691e-16 -7.58939e-17 0)
(-3.38491e-17 0 0)
(3.20003e-20 0 0)
(1.00558e-16 0 0)
(2.64811e-16 0 0)
(5.9616e-17 0 0)
(-1.45974e-16 0 0)
(2.55765e-18 1.20346e-16 0)
(-5.02302e-17 3.61038e-16 0)
(-1.64733e-16 1.5504e-16 0)
(3.7011e-17 0 0)
(2.39502e-16 0 0)
(3.83591e-17 0 0)
(-1.50876e-16 9.54094e-17 0)
(3.56666e-17 0 0)
(2.36916e-16 0 0)
(3.17138e-17 0 0)
(-1.70661e-16 0 0)
(3.12374e-17 0 0)
(2.28498e-16 7.04729e-17 0)
(7.39482e-17 0 0)
(-1.20485e-16 0 0)
(-1.18574e-17 0 0)
(-4.9877e-18 0 0)
(-4.78139e-17 0 0)
(-1.13208e-16 -6.50519e-18 0)
(-2.62098e-16 0 0)
(-8.11887e-17 0 0)
(5.72688e-17 0 0)
(2.31206e-16 0 0)
(2.74959e-17 0 0)
(-1.66209e-16 8.34833e-17 0)
(-7.78462e-17 0 0)
(-8.19997e-18 0 0)
(0 0 0)
(0 0 0)
(9.54666e-17 0 0)
(2.31629e-16 9.97462e-17 0)
(4.60675e-17 2.8406e-16 0)
(-1.43419e-16 9.97462e-17 0)
(-1.05728e-16 1.79977e-16 0)
(-1.61044e-16 0 0)
(-1.16542e-17 0 0)
(-2.36286e-31 0 0)
(7.21692e-17 0 0)
(2.93406e-16 0 0)
(2.77321e-18 0 0)
(-2.75034e-16 0 0)
(-1.50306e-18 0 0)
(1.93626e-16 1.14925e-16 0)
(2.42546e-18 2.99239e-16 0)
(-1.91675e-16 1.14925e-16 0)
(-4.72408e-17 0 0)
(-1.47978e-18 0 0)
(-3.91005e-17 0 0)
(1.34224e-19 0 0)
(5.98407e-18 2.1684e-18 0)
(7.39996e-18 0 0)
(1.14683e-16 2.1684e-17 0)
(-1.15026e-17 1.56125e-16 0)
(-1.61678e-16 0 0)
(-1.33689e-16 6.72203e-17 0)
(-1.61071e-18 2.60208e-16 0)
(1.07911e-16 6.72203e-17 0)
(1.21261e-17 0 0)
(-1.74347e-16 0 0)
(-5.85931e-21 3.46943e-17 0)
(1.74347e-16 -6.07151e-17 0)
(2.4067e-18 0 0)
(2.12989e-17 1.71303e-16 0)
(7.28119e-18 4.597e-16 0)
(-1.77687e-16 2.77555e-16 0)
(1.4674e-16 4.98731e-17 0)
(2.01668e-12 -7.89296e-16 0)
(1.27783e-08 3.5475e-15 0)
(7.60276e-06 -2.5739e-15 0)
(0.000602079 4.95948e-15 0)
(0.00965119 6.7271e-15 0)
(0.0503303 -1.36229e-14 0)
(0.132949 5.79766e-15 0)
(0.243449 -3.01322e-16 0)
(0.367095 -1.16135e-15 0)
(0.499315 -4.04447e-17 0)
(0.636736 1.42594e-15 0)
(0.778704 -4.33751e-16 0)
(0.904647 3.79265e-15 0)
(0.952124 4.49615e-15 0)
(0.928227 3.53857e-15 0)
(0.931609 5.02542e-15 0)
(0.935485 2.95138e-15 0)
(0.948839 1.28935e-15 0)
(0.959528 1.06908e-15 0)
(0.899997 -1.31303e-15 0)
(0.669066 -5.90023e-16 0)
(0.198876 -4.49044e-15 0)
(0.00758321 2.42034e-15 0)
(2.30568e-05 1.59916e-15 0)
(4.10389e-09 8.67359e-18 0)
(1.16158e-13 1.09504e-16 0)
(-4.8646e-17 2.81892e-17 0)
(-1.70564e-16 1.16009e-16 0)
(-4.75905e-17 0 0)
(1.26632e-18 0 0)
(1.184e-16 0 0)
(2.75293e-16 9.21569e-17 0)
(9.15404e-17 0 0)
(-9.74288e-17 0 0)
(1.0499e-17 7.58939e-17 0)
(-8.98356e-17 1.74556e-16 0)
(-1.91019e-16 7.58939e-17 0)
(1.36221e-17 5.74625e-17 0)
(2.15132e-16 0 0)
(1.52575e-17 2.81892e-17 0)
(-1.54099e-16 1.98408e-16 0)
(1.66934e-17 2.81892e-17 0)
(2.18082e-16 0 0)
(2.42554e-17 0 0)
(-1.76207e-16 0 0)
(3.13972e-17 6.50519e-17 0)
(2.30617e-16 1.72388e-16 0)
(6.42518e-17 4.33679e-18 0)
(-1.40813e-16 0 0)
(-3.18463e-17 0 0)
(-2.45039e-17 0 0)
(-1.04102e-16 -6.50519e-18 0)
(-7.32664e-17 -1.0842e-16 0)
(-1.85835e-16 2.81892e-17 0)
(-7.20381e-17 1.40946e-16 0)
(6.26437e-17 0 0)
(2.41007e-16 0 0)
(4.33529e-17 1.95156e-17 0)
(-1.26441e-16 1.86482e-16 0)
(-1.4182e-16 1.13841e-16 0)
(-5.48401e-17 3.14417e-17 0)
(0 1.13841e-16 0)
(0 0 0)
(1.76995e-16 0 0)
(4.63422e-16 0 0)
(7.80977e-17 6.93887e-17 0)
(-3.91449e-16 2.92734e-16 0)
(-2.17743e-16 4.7271e-16 0)
(-2.64814e-16 1.92987e-16 0)
(-4.83567e-17 0 0)
(-7.94208e-27 0 0)
(1.13022e-16 0 0)
(3.72455e-16 0 0)
(3.4734e-17 4.33679e-18 0)
(-2.62515e-16 0 0)
(1.44951e-17 1.73472e-16 0)
(2.9275e-16 2.60208e-17 0)
(-1.06177e-18 6.72203e-17 0)
(-3.31288e-16 0 0)
(-8.97944e-17 0 0)
(-1.14212e-17 1.01915e-16 0)
(-1.46243e-16 0 0)
(1.65442e-18 0 0)
(7.17687e-17 0 0)
(3.86374e-17 6.72203e-17 0)
(1.61128e-16 2.34187e-16 0)
(-4.15765e-17 4.35848e-16 0)
(-2.88678e-16 1.8865e-16 0)
(-2.79313e-16 0 0)
(-4.80446e-18 4.33679e-17 0)
(2.30829e-16 0 0)
(5.2769e-17 0 0)
(-4.14513e-24 7.15571e-17 0)
(-3.98189e-20 3.03576e-16 0)
(7.35157e-23 1.25767e-16 0)
(6.45223e-18 1.23599e-16 0)
(5.38842e-17 3.36101e-16 0)
(9.23712e-17 3.64291e-16 0)
(-9.13323e-17 5.48604e-16 0)
(3.63545e-17 2.4286e-16 0)
(2.01605e-12 6.63529e-16 0)
(1.27783e-08 3.11165e-15 0)
(7.60276e-06 -6.70473e-15 0)
(0.000602079 4.77724e-15 0)
(0.00965119 6.76646e-15 0)
(0.0503303 -1.47593e-14 0)
(0.132949 7.78047e-15 0)
(0.243449 -9.22715e-16 0)
(0.367095 2.47385e-15 0)
(0.499315 -6.58911e-16 0)
(0.636736 2.9344e-15 0)
(0.778704 3.41276e-16 0)
(0.904647 6.973e-16 0)
(0.952124 2.07877e-15 0)
(0.928227 1.73381e-15 0)
(0.931609 5.0823e-15 0)
(0.935485 3.11384e-15 0)
(0.948839 2.05215e-16 0)
(0.959528 2.09558e-16 0)
(0.899997 -1.30834e-15 0)
(0.669066 3.40619e-16 0)
(0.198876 -5.41516e-15 0)
(0.00758321 2.86951e-15 0)
(2.30568e-05 1.88863e-15 0)
(4.10389e-09 -1.14925e-16 0)
(1.16297e-13 3.41522e-16 0)
(-1.71343e-16 2.46113e-16 0)
(-2.81755e-16 2.92734e-16 0)
(-1.14431e-16 1.30104e-16 0)
(1.18638e-17 4.55363e-17 0)
(1.0415e-16 1.23599e-16 0)
(2.13768e-16 2.86228e-16 0)
(4.72322e-17 1.20346e-16 0)
(-1.3928e-16 9.64936e-17 0)
(-1.38238e-17 1.16009e-16 0)
(1.11518e-17 5.42099e-18 0)
(-8.09808e-17 1.16009e-16 0)
(3.05007e-17 2.28766e-16 0)
(1.36807e-16 1.25767e-16 0)
(2.07133e-18 3.90311e-17 0)
(-1.60422e-16 9.64936e-17 0)
(-7.04819e-17 1.16009e-16 0)
(9.22312e-17 8.99885e-17 0)
(8.53177e-17 2.81892e-17 0)
(-1.74573e-17 1.34441e-16 0)
(8.52039e-17 2.37439e-16 0)
(1.63279e-16 8.23991e-17 0)
(2.8731e-18 -9.97462e-17 0)
(-1.57683e-16 -5.63783e-17 0)
(-5.50842e-17 5.20415e-17 0)
(-4.96809e-17 -4.98731e-17 0)
(-1.51505e-16 5.42099e-17 0)
(-4.95868e-17 -2.1684e-18 0)
(-4.60877e-17 1.69135e-16 0)
(-1.036e-16 3.23091e-16 0)
(-3.52993e-17 1.7564e-16 0)
(1.70586e-16 6.61361e-17 0)
(1.40409e-16 -8.13149e-17 0)
(-6.25277e-17 8.23991e-17 0)
(-2.24319e-16 2.86228e-16 0)
(-1.23378e-16 1.84314e-16 0)
(-1.25767e-16 2.86228e-16 0)
(-2.1684e-18 -2.1684e-18 0)
(1.61916e-16 -2.1684e-18 0)
(4.32074e-16 -2.1684e-18 0)
(1.27065e-16 3.90311e-17 0)
(-1.78609e-16 2.86228e-16 0)
(-3.60557e-16 7.58939e-17 0)
(-3.14824e-16 -2.1684e-18 0)
(-7.36276e-17 -2.1684e-18 0)
(-2.79861e-23 0 0)
(2.59426e-17 0 0)
(2.22225e-16 -4.33679e-18 0)
(5.50592e-17 -1.73472e-16 0)
(4.24393e-17 1.23599e-16 0)
(4.73453e-17 4.61868e-16 0)
(1.68245e-16 2.08166e-16 0)
(-4.6696e-18 0 0)
(-1.55835e-16 -2.1684e-18 0)
(1.83163e-17 1.12757e-16 0)
(-3.50464e-17 3.5128e-16 0)
(-2.14276e-16 1.73472e-16 0)
(9.58984e-18 0 0)
(1.9236e-16 1.14925e-16 0)
(6.9837e-17 2.9707e-16 0)
(2.52881e-16 1.12757e-16 0)
(-9.96126e-17 6.93887e-17 0)
(-4.57475e-16 6.50519e-18 0)
(-4.30544e-16 -4.33679e-18 0)
(-2.90578e-17 0 0)
(3.49431e-16 -2.1684e-18 0)
(9.83196e-17 0 0)
(-2.83887e-23 0 0)
(-2.14025e-19 7.15571e-17 0)
(4.18076e-22 0 0)
(1.44507e-17 -2.1684e-18 0)
(8.88192e-17 8.23991e-17 0)
(3.11282e-16 1.14925e-16 0)
(2.41114e-17 2.21176e-16 0)
(-2.17879e-16 6.07151e-17 0)
(2.01747e-12 -4.33679e-18 0)
(1.27783e-08 1.12323e-15 0)
(7.60276e-06 -6.10624e-15 0)
(0.000602079 1.6575e-15 0)
(0.00965119 1.32968e-14 0)
(0.0503303 -1.80575e-14 0)
(0.132949 1.05401e-14 0)
(0.243449 -3.02929e-15 0)
(0.367095 1.90215e-15 0)
(0.499315 -2.47724e-16 0)
(0.636736 6.30445e-16 0)
(0.778704 -3.27845e-15 0)
(0.904647 -3.0552e-16 0)
(0.952124 9.34818e-16 0)
(0.928227 2.67863e-15 0)
(0.931609 3.50066e-15 0)
(0.935485 3.24445e-15 0)
(0.948839 1.07018e-15 0)
(0.959528 -3.22322e-16 0)
(0.899997 -3.83489e-16 0)
(0.669066 -2.07305e-15 0)
(0.198876 -1.94561e-15 0)
(0.00758321 8.30477e-16 0)
(2.30568e-05 4.97636e-16 0)
(4.10389e-09 4.98731e-16 0)
(1.1575e-13 4.14164e-16 0)
(-3.90131e-17 8.23991e-17 0)
(-1.70954e-16 2.27682e-16 0)
(-9.71958e-17 3.03576e-16 0)
(2.68301e-17 1.81061e-16 0)
(1.57169e-16 2.62376e-16 0)
(6.31029e-17 2.88397e-16 0)
(-7.7842e-17 1.5504e-16 0)
(-1.83797e-16 2.62376e-16 0)
(-3.75358e-17 2.49366e-16 0)
(2.09087e-17 1.2143e-16 0)
(8.13114e-17 2.24429e-16 0)
(8.71977e-18 2.64544e-16 0)
(4.40292e-17 3.02491e-16 0)
(-2.65957e-17 1.51788e-16 0)
(-1.83298e-16 1.38777e-16 0)
(-3.57439e-17 2.86228e-16 0)
(7.34201e-17 3.10081e-16 0)
(2.07304e-16 1.7564e-16 0)
(1.51705e-16 3.18754e-16 0)
(-4.54407e-17 3.13333e-16 0)
(-1.16295e-16 9.32411e-17 0)
(-1.52921e-17 -4.98731e-17 0)
(4.21618e-17 6.07151e-17 0)
(-5.41013e-17 1.20346e-16 0)
(-8.61289e-17 1.73472e-17 0)
(-4.8428e-17 1.19262e-16 0)
(5.84612e-18 1.6263e-17 0)
(3.20853e-17 8.13149e-17 0)
(-1.42291e-16 1.97324e-16 0)
(-1.60291e-16 3.68627e-16 0)
(-1.27194e-17 2.5045e-16 0)
(-2.64014e-17 9.75778e-17 0)
(8.97566e-17 0 0)
(-6.48991e-17 1.44198e-16 0)
(-1.74076e-16 1.86482e-16 0)
(-3.39354e-16 1.6263e-16 0)
(-2.1684e-18 2.1684e-18 0)
(2.30324e-16 2.1684e-18 0)
(5.45525e-16 2.1684e-18 0)
(1.86104e-16 1.64798e-16 0)
(-3.45869e-16 -9.54094e-17 0)
(-4.23091e-16 -4.597e-16 0)
(-1.36836e-16 -1.7564e-16 0)
(3.84841e-20 2.1684e-18 0)
(-1.28963e-20 0 0)
(7.80676e-17 -2.1684e-18 0)
(3.02238e-16 -6.07151e-17 0)
(1.20362e-16 1.14925e-16 0)
(3.01008e-16 0 0)
(1.20774e-16 1.12757e-16 0)
(1.89968e-16 -1.95156e-17 0)
(-1.58521e-17 9.10727e-17 0)
(-2.57791e-16 2.1684e-18 0)
(-1.95488e-17 2.1684e-18 0)
(-5.98564e-17 -1.30104e-17 0)
(-2.7158e-16 0 0)
(3.98934e-17 0 0)
(2.66464e-16 2.58039e-16 0)
(1.71452e-17 3.46943e-17 0)
(-4.74892e-17 -7.15571e-17 0)
(-1.61707e-17 -3.25259e-16 0)
(-2.04069e-16 -1.38777e-16 0)
(-1.93248e-16 -1.12757e-16 0)
(4.78009e-17 0 0)
(9.77696e-17 2.1684e-18 0)
(7.66248e-24 0 0)
(-1.03609e-20 0 0)
(-3.07152e-18 0 0)
(5.49352e-20 0 0)
(4.91201e-17 2.1684e-18 0)
(2.42764e-16 0 0)
(8.78769e-17 1.0842e-16 0)
(-1.14536e-16 -9.75778e-17 0)
(-1.58154e-17 2.1684e-18 0)
(2.01619e-12 9.32411e-17 0)
(1.27783e-08 1.40295e-15 0)
(7.60276e-06 3.42609e-16 0)
(0.000602079 -6.18959e-15 0)
(0.00965119 2.31109e-14 0)
(0.0503303 -2.29924e-14 0)
(0.132949 1.60338e-14 0)
(0.243449 -6.32508e-15 0)
(0.367095 -7.9169e-16 0)
(0.499315 8.47653e-16 0)
(0.636736 -1.89901e-15 0)
(0.778704 -1.233e-15 0)
(0.904647 -1.02917e-15 0)
(0.952124 -1.39891e-15 0)
(0.928227 9.55089e-16 0)
(0.931609 -1.68338e-15 0)
(0.935485 -1.51312e-16 0)
(0.948839 1.3204e-15 0)
(0.959528 -1.50998e-15 0)
(0.899997 9.56117e-16 0)
(0.669066 -4.55561e-15 0)
(0.198876 -1.11521e-15 0)
(0.00758321 1.07283e-15 0)
(2.30568e-05 3.53441e-16 0)
(4.10389e-09 2.54787e-15 0)
(1.15437e-13 -2.07082e-16 0)
(5.70926e-17 0 0)
(4.36229e-17 9.75778e-18 0)
(-6.13807e-17 1.20346e-16 0)
(4.27775e-17 1.73472e-16 0)
(1.7936e-16 7.69781e-17 0)
(5.59719e-17 1.11672e-16 0)
(5.50021e-19 3.25259e-17 0)
(-8.32882e-17 1.35525e-16 0)
(-1.04272e-17 5.85467e-17 0)
(5.14109e-17 1.32272e-16 0)
(-3.65347e-17 1.43114e-16 0)
(2.87681e-17 6.50519e-17 0)
(1.14527e-16 1.68051e-16 0)
(1.80967e-17 6.61361e-17 0)
(-4.2561e-17 1.45283e-16 0)
(5.44071e-17 2.92734e-16 0)
(-1.36211e-18 3.67543e-16 0)
(9.40703e-17 2.88397e-16 0)
(-6.97952e-18 1.60461e-16 0)
(-4.22888e-17 1.34441e-16 0)
(-1.41942e-16 1.92987e-16 0)
(-2.92426e-17 1.38777e-16 0)
(2.50451e-17 2.21176e-16 0)
(-1.09432e-16 9.64936e-17 0)
(-2.03843e-16 1.27935e-16 0)
(-1.40224e-16 -3.46943e-17 0)
(4.10718e-18 -8.67359e-17 0)
(1.86417e-16 -8.99885e-17 0)
(1.03437e-16 -4.98731e-17 0)
(5.73333e-17 1.95156e-16 0)
(2.70362e-17 3.67543e-16 0)
(-7.28234e-17 3.0466e-16 0)
(-7.52717e-17 6.72203e-17 0)
(-1.50708e-16 -1.31188e-16 0)
(-2.62663e-16 -3.14417e-17 0)
(-3.82722e-16 -1.4203e-16 0)
(0 0 0)
(1.31243e-16 0 0)
(4.0441e-16 -6.50519e-18 0)
(2.65042e-18 -1.64798e-16 0)
(-4.39315e-16 -4.7271e-16 0)
(-1.51296e-16 -1.86482e-16 0)
(-8.86354e-18 0 0)
(5.87443e-19 0 0)
(-1.00717e-18 0 0)
(1.3268e-16 2.1684e-18 0)
(3.92522e-16 1.23599e-16 0)
(1.55171e-16 2.68881e-16 0)
(-9.70751e-17 1.0842e-17 0)
(7.40559e-17 -2.34187e-16 0)
(2.55917e-16 -6.50519e-17 0)
(-3.50356e-17 -9.32411e-17 0)
(-3.61036e-16 0 0)
(-7.87424e-17 -9.97462e-17 0)
(-8.30124e-19 -3.77301e-16 0)
(-5.48855e-17 -1.36609e-16 0)
(1.79353e-16 0 0)
(2.67829e-17 1.73472e-17 0)
(-2.07858e-16 -2.23345e-16 0)
(-3.06109e-17 -4.33679e-17 0)
(8.55451e-21 -8.45675e-17 0)
(-1.886e-22 0 0)
(-2.4209e-21 1.17093e-16 0)
(2.24073e-20 0 0)
(2.19195e-19 0 0)
(-1.95953e-23 0 0)
(-6.32879e-19 0 0)
(-3.7415e-17 0 0)
(1.37992e-18 0 0)
(1.11473e-16 0 0)
(3.58155e-16 0 0)
(4.1545e-17 -1.23599e-16 0)
(-2.79624e-16 0 0)
(5.00369e-18 0 0)
(2.0179e-12 4.29343e-16 0)
(1.27783e-08 1.60461e-15 0)
(7.60276e-06 4.59703e-15 0)
(0.000602079 -1.65251e-14 0)
(0.00965119 2.46238e-14 0)
(0.0503303 -2.23563e-14 0)
(0.132949 1.30493e-14 0)
(0.243449 -7.75e-15 0)
(0.367095 -5.89652e-16 0)
(0.499315 1.06336e-15 0)
(0.636736 -9.52864e-16 0)
(0.778704 1.06676e-15 0)
(0.904647 -1.82496e-15 0)
(0.952124 -2.25173e-15 0)
(0.928227 -1.19212e-15 0)
(0.931609 -2.77891e-15 0)
(0.935485 -1.15355e-15 0)
(0.948839 1.3996e-16 0)
(0.959528 -3.53973e-15 0)
(0.899997 1.14369e-15 0)
(0.669066 -2.80468e-15 0)
(0.198876 -2.26741e-15 0)
(0.00758321 2.54529e-15 0)
(2.30568e-05 1.43653e-15 0)
(4.10389e-09 9.90957e-16 0)
(1.16105e-13 -3.0466e-16 0)
(-7.69271e-17 -3.68627e-17 0)
(2.47132e-17 -1.40946e-16 0)
(4.86397e-17 -3.25259e-17 0)
(-7.36593e-17 2.7105e-17 0)
(4.07496e-17 -8.78201e-17 0)
(1.45367e-16 -1.19262e-17 0)
(4.25704e-18 0 0)
(-1.31077e-16 -1.40946e-17 0)
(-2.92024e-17 -1.16009e-16 0)
(7.15017e-17 -1.19262e-17 0)
(-3.09697e-17 -1.19262e-17 0)
(7.33595e-17 -1.17093e-16 0)
(1.76007e-16 -1.40946e-17 0)
(4.89452e-17 0 0)
(1.78236e-17 1.0842e-18 0)
(1.01657e-16 1.01915e-16 0)
(-8.66097e-19 1.73472e-16 0)
(3.71117e-20 1.25767e-16 0)
(-2.54983e-17 0 0)
(-1.18935e-16 0 0)
(-1.28451e-17 5.42099e-17 0)
(1.33969e-16 2.11419e-16 0)
(8.18608e-18 7.37255e-17 0)
(-1.78832e-16 0 0)
(-3.6088e-16 6.39677e-17 0)
(-2.76469e-16 -6.28835e-17 0)
(-9.74528e-17 1.51788e-17 0)
(8.72935e-17 -2.02745e-16 0)
(2.94651e-16 -2.32018e-16 0)
(2.78523e-16 -2.27682e-17 0)
(4.16546e-17 1.73472e-16 0)
(-1.46819e-16 1.23599e-16 0)
(-2.61211e-16 -9.8662e-17 0)
(-2.34465e-16 -3.01407e-16 0)
(-1.32248e-16 -2.17924e-16 0)
(-2.02745e-16 -3.18754e-16 0)
(0 0 0)
(1.12431e-17 0 0)
(1.62908e-16 -2.45029e-16 0)
(-2.78851e-17 -4.83552e-16 0)
(-1.48544e-16 -2.19008e-16 0)
(-4.60046e-18 0 0)
(1.37125e-17 0 0)
(7.49678e-18 0 0)
(-1.71188e-17 0 0)
(1.10229e-16 0 0)
(3.78915e-16 0 0)
(1.42144e-19 6.50519e-17 0)
(-3.664e-16 0 0)
(-8.32739e-17 -5.20415e-17 0)
(9.56312e-17 0 0)
(1.60199e-17 -9.32411e-17 0)
(-1.80382e-16 0 0)
(-1.53608e-17 0 0)
(-2.99806e-18 -1.14925e-16 0)
(-3.34749e-18 0 0)
(8.50385e-17 0 0)
(2.34561e-19 -9.32411e-17 0)
(-1.10457e-16 -4.55363e-17 0)
(-5.72396e-18 0 0)
(2.7806e-20 0 0)
(-5.36341e-20 0 0)
(-1.31196e-20 0 0)
(3.75022e-19 0 0)
(-3.65914e-19 0 0)
(-4.17157e-21 0 0)
(-9.02191e-18 0 0)
(-1.32624e-16 0 0)
(8.83714e-18 -9.75778e-17 0)
(1.61212e-16 0 0)
(1.76027e-16 -1.82145e-16 0)
(-1.45944e-17 -4.38016e-16 0)
(-9.68506e-17 -1.82145e-16 0)
(1.14335e-16 0 0)
(2.01733e-12 -1.38777e-16 0)
(1.27783e-08 -5.6812e-16 0)
(7.60276e-06 2.95554e-15 0)
(0.000602079 -9.60873e-15 0)
(0.00965119 1.5201e-14 0)
(0.0503303 -1.0782e-14 0)
(0.132949 8.53906e-15 0)
(0.243449 -3.40561e-15 0)
(0.367095 1.29155e-15 0)
(0.499315 7.97097e-16 0)
(0.636736 -1.72725e-16 0)
(0.778704 -1.54455e-15 0)
(0.904647 9.47613e-16 0)
(0.952124 1.27508e-15 0)
(0.928227 2.33054e-16 0)
(0.931609 -4.22524e-16 0)
(0.935485 6.62189e-16 0)
(0.948839 -7.21853e-16 0)
(0.959528 -2.61729e-15 0)
(0.899997 6.12227e-16 0)
(0.669066 -9.99531e-16 0)
(0.198876 -3.67114e-16 0)
(0.00758321 9.96357e-16 0)
(2.30568e-05 1.07984e-15 0)
(4.10389e-09 2.1684e-18 0)
(1.16188e-13 -8.23991e-17 0)
(-6.33892e-17 -7.15571e-17 0)
(3.91598e-17 -3.90311e-17 0)
(8.17735e-18 0 0)
(-1.03994e-16 -5.20415e-17 0)
(8.54716e-17 -1.0842e-17 0)
(2.02556e-16 0 0)
(5.30713e-18 7.48097e-17 0)
(-1.88886e-16 0 0)
(-3.48587e-17 -1.40946e-17 0)
(7.35694e-17 -7.04729e-17 0)
(-3.09318e-17 -9.75778e-18 0)
(5.16024e-17 -2.27682e-17 0)
(1.68476e-16 0 0)
(1.56736e-17 0 0)
(4.93633e-17 2.1684e-18 0)
(1.7811e-16 0 0)
(4.34294e-17 0 0)
(-6.98854e-19 0 0)
(-4.37964e-17 0 0)
(-1.79822e-16 0 0)
(2.10761e-17 0 0)
(2.14095e-16 8.23991e-17 0)
(2.39309e-17 0 0)
(-1.69654e-16 0 0)
(-3.70994e-16 0 0)
(-2.16387e-16 0 0)
(-1.13131e-16 -1.6263e-17 0)
(3.56132e-18 -8.45675e-17 0)
(2.46702e-16 -8.78201e-17 0)
(3.3057e-16 0 0)
(8.63981e-17 0 0)
(-2.46165e-16 0 0)
(-3.69183e-16 5.63783e-17 0)
(-2.20878e-16 -9.43252e-17 0)
(-5.29e-17 -5.96309e-17 0)
(-3.90311e-17 -1.57209e-16 0)
(3.90311e-17 1.92987e-16 0)
(4.75241e-17 0 0)
(-3.38212e-17 -2.38524e-17 0)
(-4.12128e-17 -2.2985e-16 0)
(-1.60877e-17 -2.38524e-17 0)
(5.65742e-18 0 0)
(1.07078e-16 0 0)
(3.25294e-17 1.2143e-16 0)
(-8e-17 0 0)
(1.12346e-16 -2.1684e-18 0)
(3.99487e-16 0 0)
(3.15088e-17 0 0)
(-3.38037e-16 0 0)
(-4.7004e-17 -6.93887e-17 0)
(1.55823e-16 0 0)
(2.18236e-17 9.32411e-17 0)
(-1.88302e-16 3.25259e-17 0)
(-8.52096e-17 0 0)
(-1.88419e-17 0 0)
(4.28096e-18 0 0)
(1.76487e-16 0 0)
(3.19095e-18 9.32411e-17 0)
(-1.80599e-16 0 0)
(-1.85206e-17 0 0)
(4.48141e-19 0 0)
(-3.27724e-18 0 0)
(-1.17389e-18 0 0)
(1.28423e-18 0 0)
(-8.90243e-18 0 0)
(-1.95431e-19 0 0)
(-4.11328e-17 0 0)
(-1.83696e-16 -1.60461e-16 0)
(1.95866e-17 -3.46943e-16 0)
(2.19416e-16 -1.66967e-16 0)
(4.62789e-17 0 0)
(-3.07813e-17 -1.56125e-16 0)
(1.79172e-17 0 0)
(1.10427e-16 0 0)
(2.01763e-12 -2.81892e-17 0)
(1.27783e-08 -2.21176e-16 0)
(7.60276e-06 5.13913e-16 0)
(0.000602079 -3.80748e-15 0)
(0.00965119 5.64491e-15 0)
(0.0503303 -5.54493e-15 0)
(0.132949 1.23029e-15 0)
(0.243449 8.30309e-16 0)
(0.367095 1.311e-15 0)
(0.499315 -1.51667e-17 0)
(0.636736 1.03155e-15 0)
(0.778704 1.3651e-16 0)
(0.904647 1.56838e-15 0)
(0.952124 1.71228e-15 0)
(0.928227 7.27671e-16 0)
(0.931609 3.67059e-16 0)
(0.935485 -7.41428e-16 0)
(0.948839 -1.88429e-15 0)
(0.959528 -8.01449e-16 0)
(0.899997 3.27216e-16 0)
(0.669066 -1.51173e-15 0)
(0.198876 1.43054e-15 0)
(0.00758321 -1.76113e-15 0)
(2.30568e-05 4.71616e-16 0)
(4.10389e-09 -1.95156e-16 0)
(1.1613e-13 -8.67359e-17 0)
(-2.44223e-17 -2.01661e-16 0)
(9.16883e-17 -8.56517e-17 0)
(3.74574e-17 0 0)
(-1.15404e-16 5.20415e-17 0)
(7.01626e-17 0 0)
(2.0973e-16 -7.69781e-17 0)
(5.13034e-18 -7.48097e-17 0)
(-1.9951e-16 -1.04083e-16 0)
(-4.42196e-17 -7.04729e-17 0)
(8.40637e-17 -2.14671e-16 0)
(-1.9093e-17 -1.11672e-16 0)
(1.01117e-16 0 0)
(2.29999e-16 -8.45675e-17 0)
(8.71166e-17 -5.96309e-17 0)
(1.09821e-18 9.54094e-17 0)
(-2.66092e-18 -4.66205e-17 0)
(-2.14554e-18 -1.47451e-16 0)
(9.09851e-18 -1.23599e-16 0)
(6.82002e-17 -1.07336e-16 0)
(-2.71127e-17 0 0)
(2.13976e-17 6.50519e-17 0)
(1.03954e-16 0 0)
(2.51116e-18 0 0)
(-1.53402e-16 0 0)
(-3.4528e-16 0 0)
(-3.47014e-16 3.36101e-17 0)
(-1.93024e-16 -1.2143e-16 0)
(8.21341e-17 -1.0842e-18 0)
(3.13944e-16 0 0)
(3.18632e-16 -4.33679e-18 0)
(1.55028e-16 -1.2143e-16 0)
(-1.10396e-16 4.01153e-17 0)
(-3.22872e-16 2.28766e-16 0)
(-3.28134e-16 1.22514e-16 0)
(-1.67976e-16 1.07336e-16 0)
(-8.67359e-17 8.02307e-17 0)
(3.03576e-16 4.55363e-16 0)
(9.11705e-17 1.82145e-16 0)
(-1.34322e-16 1.32272e-16 0)
(-2.21238e-16 -1.30104e-16 0)
(-3.58623e-17 2.1684e-18 0)
(6.09804e-17 0 0)
(2.47015e-16 1.99492e-16 0)
(5.81921e-17 3.83806e-16 0)
(-1.30668e-16 2.01661e-16 0)
(1.37252e-16 1.10588e-16 0)
(2.81331e-16 1.27935e-16 0)
(2.45154e-17 -1.27935e-16 0)
(-2.23433e-16 -7.80623e-17 0)
(-2.2234e-17 -2.66713e-16 0)
(1.88391e-16 -6.93887e-17 0)
(4.11977e-17 -1.51788e-17 0)
(-2.16266e-16 2.4286e-16 0)
(-2.71555e-16 6.07151e-17 0)
(-7.59793e-17 0 0)
(3.44938e-17 0 0)
(2.56878e-16 0 0)
(1.39565e-17 -2.38524e-17 0)
(-2.38789e-16 0 0)
(-2.6542e-17 0 0)
(4.58497e-18 0 0)
(-4.7786e-17 0 0)
(-2.10824e-17 0 0)
(8.62968e-19 0 0)
(-6.1146e-17 0 0)
(-2.93306e-18 0 0)
(-7.55142e-17 0 0)
(-3.1526e-16 8.67359e-18 0)
(2.83698e-17 2.1684e-17 0)
(3.36262e-16 0 0)
(6.01629e-17 0 0)
(-7.72581e-17 0 0)
(7.79947e-17 0 0)
(8.62288e-17 0 0)
(2.01745e-12 2.32018e-16 0)
(1.27783e-08 -1.13841e-15 0)
(7.60276e-06 3.18756e-16 0)
(0.000602079 -1.10428e-15 0)
(0.00965119 1.79491e-15 0)
(0.0503303 -2.38707e-15 0)
(0.132949 -3.85619e-15 0)
(0.243449 2.68511e-15 0)
(0.367095 6.46522e-16 0)
(0.499315 -2.22446e-16 0)
(0.636736 1.19948e-15 0)
(0.778704 3.05717e-15 0)
(0.904647 1.84755e-15 0)
(0.952124 1.50182e-15 0)
(0.928227 4.30967e-16 0)
(0.931609 1.24532e-15 0)
(0.935485 -1.29212e-15 0)
(0.948839 -3.06248e-15 0)
(0.959528 5.70113e-16 0)
(0.899997 -3.293e-16 0)
(0.669066 -1.94548e-15 0)
(0.198876 3.43719e-15 0)
(0.00758321 -3.66444e-15 0)
(2.30568e-05 9.7901e-16 0)
(4.10389e-09 -1.2967e-15 0)
(1.15964e-13 -8.99885e-17 0)
(4.64782e-17 -9.97462e-17 0)
(1.70342e-16 0 0)
(1.44214e-16 -8.78201e-17 0)
(3.14751e-17 1.51788e-17 0)
(-3.53449e-17 -8.56517e-17 0)
(8.09213e-17 -2.05998e-16 0)
(-1.35269e-19 -1.39862e-16 0)
(-6.36846e-17 -2.40692e-16 0)
(-5.03972e-17 -9.8662e-17 0)
(9.20493e-17 -5.42099e-17 0)
(-1.15089e-17 -9.75778e-18 0)
(1.41105e-17 -7.37255e-17 0)
(1.50537e-16 -2.12503e-16 0)
(1.20718e-16 -2.0925e-16 0)
(5.31151e-18 -9.43252e-17 0)
(-1.05559e-16 -2.1684e-16 0)
(-4.43466e-18 -3.32849e-16 0)
(2.76139e-17 -2.9707e-16 0)
(1.35001e-16 -2.81892e-16 0)
(5.00685e-17 -1.40946e-16 0)
(4.51262e-17 -6.50519e-17 0)
(9.97299e-17 0 0)
(-9.67763e-18 0 0)
(-5.09404e-17 -6.72203e-17 0)
(-2.57477e-16 0 0)
(-3.7279e-16 1.76724e-16 0)
(-1.6967e-16 8.13149e-17 0)
(4.03731e-17 0 0)
(2.19997e-16 9.10727e-17 0)
(2.81743e-16 -1.31188e-16 0)
(1.34131e-16 -2.90565e-16 0)
(5.45147e-17 -8.45675e-17 0)
(-2.27367e-16 5.09573e-17 0)
(-2.86899e-16 2.2985e-16 0)
(-1.68131e-16 2.99239e-16 0)
(-2.7105e-16 2.64544e-16 0)
(5.1391e-16 2.4286e-16 0)
(1.48413e-16 1.04083e-16 0)
(-2.34386e-16 1.73472e-17 0)
(-3.25307e-16 1.38777e-16 0)
(-3.29239e-17 3.03576e-17 0)
(2.08862e-16 1.51788e-16 0)
(4.83119e-16 1.58293e-16 0)
(9.73225e-17 1.7564e-16 0)
(-3.2931e-16 1.86482e-16 0)
(2.21866e-16 3.66459e-16 0)
(-8.72878e-17 5.42099e-17 0)
(-2.0575e-16 -2.51534e-16 0)
(-1.51931e-16 4.81481e-34 0)
(-9.58231e-17 8.02307e-17 0)
(2.08737e-16 -2.1684e-18 0)
(2.73276e-16 -2.49366e-16 0)
(-4.11482e-17 6.07151e-17 0)
(-4.06314e-16 2.32018e-16 0)
(-1.42968e-16 5.85467e-17 0)
(8.89206e-17 1.43114e-16 0)
(-1.25796e-16 2.1684e-18 0)
(-1.11858e-16 -2.7105e-16 0)
(1.04971e-16 -8.67359e-18 0)
(2.71849e-16 1.90819e-16 0)
(1.62759e-17 1.14925e-16 0)
(-2.15506e-16 2.38524e-17 0)
(-1.02637e-16 0 0)
(-1.15831e-17 0 0)
(-1.72942e-16 2.60208e-17 0)
(-1.93467e-17 -4.33679e-18 0)
(7.18438e-17 2.60208e-17 0)
(-1.10382e-16 2.08166e-16 0)
(7.0808e-17 3.88143e-16 0)
(4.78922e-17 1.2143e-16 0)
(-1.69336e-16 0 0)
(-9.07593e-17 -1.12757e-16 0)
(1.06609e-16 0 0)
(7.96009e-17 2.38524e-17 0)
(2.01847e-12 -7.67612e-16 0)
(1.27783e-08 2.1684e-16 0)
(7.60276e-06 -1.09071e-15 0)
(0.000602079 1.22143e-15 0)
(0.00965119 -4.71575e-15 0)
(0.0503303 3.28915e-15 0)
(0.132949 -7.88259e-15 0)
(0.243449 5.45728e-15 0)
(0.367095 -1.84379e-15 0)
(0.499315 5.6791e-16 0)
(0.636736 6.41e-16 0)
(0.778704 -6.81451e-16 0)
(0.904647 2.94478e-15 0)
(0.952124 2.90902e-15 0)
(0.928227 2.17605e-15 0)
(0.931609 9.39374e-16 0)
(0.935485 9.87509e-16 0)
(0.948839 -1.50221e-15 0)
(0.959528 7.67088e-16 0)
(0.899997 -1.34325e-15 0)
(0.669066 -1.72223e-16 0)
(0.198876 7.56421e-16 0)
(0.00758321 4.80406e-16 0)
(2.30568e-05 2.47192e-16 0)
(4.10389e-09 -1.32814e-15 0)
(1.16115e-13 -7.70369e-33 0)
(-6.50677e-17 -7.48097e-17 0)
(7.94268e-17 -4.87889e-17 0)
(2.316e-16 -1.72388e-16 0)
(9.26047e-17 -1.4203e-16 0)
(-6.56868e-17 1.6263e-17 0)
(3.60999e-17 -5.52941e-17 0)
(1.51781e-18 -2.05998e-17 0)
(-2.91815e-17 -1.2143e-16 0)
(7.58704e-17 -1.84314e-17 0)
(2.34247e-17 3.79469e-17 0)
(-8.09089e-17 -6.39677e-17 0)
(-9.54526e-17 3.79469e-17 0)
(4.49478e-17 -8.99885e-17 0)
(1.58513e-16 -7.26413e-17 0)
(-7.99879e-18 -1.73472e-17 0)
(-1.50682e-16 -1.58293e-16 0)
(-3.30128e-18 -1.57209e-16 0)
(6.50475e-17 -1.20346e-16 0)
(2.12843e-16 -1.27935e-16 0)
(1.11043e-16 -2.24429e-16 0)
(1.52104e-16 -7.80623e-17 0)
(1.22768e-16 0 0)
(-1.23626e-17 -8.45675e-17 0)
(1.51383e-17 -2.25513e-16 0)
(-6.54017e-18 -1.19262e-17 0)
(-2.17172e-16 1.99492e-16 0)
(-2.13215e-16 2.79723e-16 0)
(-3.99093e-17 1.07336e-16 0)
(9.18625e-17 0 0)
(1.21847e-16 -1.07336e-16 0)
(2.70711e-16 -2.07082e-16 0)
(1.91091e-16 -6.93887e-17 0)
(-4.3327e-17 -8.45675e-17 0)
(-1.67539e-16 9.8662e-17 0)
(-2.34757e-16 1.34441e-16 0)
(-3.8489e-16 1.52872e-16 0)
(3.31765e-16 -6.50519e-18 0)
(9.00786e-17 2.55871e-16 0)
(-2.02928e-16 1.99492e-16 0)
(-1.14291e-16 3.79469e-16 0)
(1.0198e-16 2.34187e-16 0)
(3.15702e-16 4.44521e-16 0)
(2.97982e-16 3.40438e-16 0)
(1.25796e-17 1.23599e-16 0)
(-1.44552e-16 1.97324e-16 0)
(-1.29564e-16 1.73472e-17 0)
(-2.5175e-16 -2.55871e-16 0)
(-1.98146e-17 -3.25259e-17 0)
(-1.83452e-16 2.38524e-16 0)
(-3.38666e-17 4.33679e-16 0)
(2.08661e-16 1.95156e-16 0)
(9.33403e-17 -6.72203e-17 0)
(4.53124e-17 1.66967e-16 0)
(-2.29114e-16 4.40184e-16 0)
(-4.65496e-17 2.60208e-16 0)
(9.36041e-17 4.20669e-16 0)
(-1.45993e-16 2.19008e-16 0)
(-1.33182e-16 6.28835e-17 0)
(1.31979e-16 2.05998e-16 0)
(3.76699e-16 5.11742e-16 0)
(1.03359e-17 3.77301e-16 0)
(-3.5341e-16 2.27682e-16 0)
(-1.86752e-16 2.81892e-17 0)
(-2.89295e-17 6.50519e-17 0)
(-2.13786e-16 2.10334e-16 0)
(-8.30475e-17 -3.46943e-17 0)
(1.71993e-16 0 0)
(9.97521e-17 0 0)
(1.89066e-16 1.71303e-16 0)
(-3.401e-17 3.85975e-16 0)
(-2.31326e-16 2.01661e-16 0)
(1.54146e-17 1.10588e-16 0)
(1.53662e-16 4.33679e-17 0)
(9.01851e-17 2.23345e-16 0)
(2.01563e-12 -1.18178e-15 0)
(1.27783e-08 2.17924e-15 0)
(7.60276e-06 -3.59956e-15 0)
(0.000602079 6.56058e-15 0)
(0.00965119 -1.84673e-14 0)
(0.0503303 1.14656e-14 0)
(0.132949 -1.08015e-14 0)
(0.243449 4.54394e-15 0)
(0.367095 -5.35326e-15 0)
(0.499315 -5.13984e-16 0)
(0.636736 1.34437e-15 0)
(0.778704 8.58694e-17 0)
(0.904647 2.28199e-15 0)
(0.952124 1.70996e-15 0)
(0.928227 1.29423e-15 0)
(0.931609 -2.84744e-16 0)
(0.935485 9.28577e-16 0)
(0.948839 -8.1456e-17 0)
(0.959528 -4.23955e-16 0)
(0.899997 -3.13721e-15 0)
(0.669066 2.52849e-15 0)
(0.198876 -2.93969e-15 0)
(0.00758321 4.10499e-15 0)
(2.30568e-05 -5.70276e-16 0)
(4.10389e-09 1.18178e-15 0)
(1.15932e-13 -1.11672e-16 0)
(-6.75463e-18 -1.65882e-16 0)
(1.10584e-16 -5.63783e-17 0)
(9.95395e-17 9.72591e-32 0)
(1.972e-16 -1.0083e-16 0)
(5.12746e-17 0 0)
(-1.25727e-16 1.12757e-16 0)
(-4.55286e-17 2.38524e-17 0)
(-6.34939e-18 1.25767e-16 0)
(9.76834e-17 2.1684e-17 0)
(1.73942e-17 -6.28835e-17 0)
(-8.80945e-17 3.25259e-17 0)
(8.02875e-18 1.45283e-16 0)
(1.44808e-16 9.21569e-17 0)
(8.51803e-17 0 0)
(-7.31029e-17 -8.89043e-17 0)
(-6.96025e-17 6.07151e-17 0)
(7.47214e-17 1.2902e-16 0)
(-3.41519e-23 2.81892e-17 0)
(3.36263e-17 6.39677e-17 0)
(1.50106e-16 -5.09573e-17 0)
(2.30745e-16 0 0)
(3.72683e-17 0 0)
(-1.33143e-16 -1.43114e-16 0)
(3.38841e-17 -4.44521e-17 0)
(1.53532e-16 0 0)
(-2.92688e-17 -1.40946e-17 0)
(-1.85909e-16 1.44198e-16 0)
(-1.24199e-16 5.42099e-18 0)
(5.80325e-17 2.60208e-17 0)
(1.05235e-16 1.07336e-16 0)
(2.14322e-16 5.74625e-17 0)
(1.16575e-16 -1.26851e-16 0)
(-1.3469e-16 -1.86482e-16 0)
(-2.59711e-16 -2.81892e-17 0)
(-1.90999e-16 0 0)
(-2.92734e-16 4.33679e-17 0)
(5.42099e-16 -2.19008e-16 0)
(1.80108e-16 -9.97462e-17 0)
(-1.88271e-16 -6.50519e-17 0)
(-1.50795e-16 1.25767e-16 0)
(1.61421e-16 5.20415e-17 0)
(4.17085e-16 1.53956e-16 0)
(9.24055e-17 -2.38524e-17 0)
(-1.01131e-16 -2.55871e-16 0)
(-3.62056e-16 -1.73472e-16 0)
(-3.93329e-16 -3.57785e-16 0)
(-4.7098e-17 -4.98731e-17 0)
(1.93453e-16 2.88397e-16 0)
(-1.02833e-17 8.67359e-17 0)
(-2.16118e-16 2.51534e-16 0)
(-2.77713e-17 -4.33679e-18 0)
(2.753e-16 -3.25259e-17 0)
(1.5092e-16 -1.32272e-16 0)
(-4.41601e-17 6.50519e-17 0)
(1.48132e-18 4.33679e-18 0)
(2.96447e-17 4.77047e-17 0)
(-1.53229e-16 -1.32272e-16 0)
(-1.29676e-16 4.33679e-18 0)
(1.50841e-16 2.1684e-17 0)
(2.33363e-16 1.43114e-16 0)
(-1.32881e-16 8.67359e-18 0)
(-5.4681e-16 2.1684e-18 0)
(-2.05725e-16 0 0)
(1.55888e-16 0 0)
(-4.35651e-17 -1.30104e-17 0)
(-3.06046e-16 -2.58039e-16 0)
(-1.28047e-17 -4.33679e-18 0)
(1.82474e-16 0 0)
(4.8376e-16 0 0)
(1.20721e-16 5.63783e-17 0)
(-2.42569e-16 1.95156e-17 0)
(-5.00542e-17 1.7564e-16 0)
(1.07775e-16 0 0)