/*--------------------------------*- C++ -*----------------------------------*\
| =========                 |                                                 |
| \\      /  F ield         | OpenFOAM: The Open Source CFD Toolbox           |
|  \\    /   O peration     | Version:  4.1                                   |
|   \\  /    A nd           | Web:      www.OpenFOAM.org                      |
|    \\/     M anipulation  |                                                 |
\*---------------------------------------------------------------------------*/
FoamFile
{
    version     2.0;
    format      ascii;
    class       volVectorField;
    location    "0.01";
    object      U;
}
// * * * * * * * * * * * * * * * * * * * * * * * * * * * * * * * * * * * * * //

dimensions      [0 1 -1 0 0 0 0];

internalField   nonuniform List<vector> 
10000
(
(0 0 0)
(1.42048e-79 0 0)
(9.83866e-20 0 0)
(-2.03243e-18 0 0)
(2.05785e-18 0 0)
(-5.01416e-22 0 0)
(-3.0937e-23 0 0)
(1.31032e-23 0 0)
(-2.26416e-38 0 0)
(-4.74964e-25 9.75778e-17 0)
(9.36309e-17 0 0)
(6.0414e-22 -9.75778e-17 0)
(-9.36732e-17 0 0)
(-4.33677e-18 0 0)
(1.14159e-19 0 0)
(4.26083e-18 0 0)
(-1.06063e-19 0 0)
(1.20237e-25 0 0)
(6.63466e-67 0 0)
(-6.54588e-28 0 0)
(2.28388e-30 0 0)
(-2.16872e-18 9.32411e-17 0)
(2.16763e-18 0 0)
(3.05636e-23 0 0)
(3.11278e-22 0 0)
(-3.97095e-23 0 0)
(-4.724e-17 -1.17093e-16 0)
(1.31658e-22 0 0)
(4.71927e-17 0 0)
(1.10196e-49 1.0842e-16 0)
(-6.39364e-18 0 0)
(-2.20743e-38 -5.42099e-17 0)
(6.39364e-18 -2.1684e-18 0)
(-4.71869e-17 0 0)
(-4.65895e-19 0 0)
(-4.46542e-21 9.32411e-17 0)
(-6.40352e-18 0 0)
(5.42099e-17 0 0)
(-9.36181e-17 0 0)
(1.05576e-18 -9.10727e-17 0)
(9.24733e-17 0 0)
(-9.24732e-17 0 0)
(1.93538e-18 -9.32411e-17 0)
(1.10029e-16 0 0)
(6.48764e-15 6.50519e-18 0)
(2.8609e-10 -1.6263e-16 0)
(2.14974e-06 -6.52688e-16 0)
(0.000830169 4.01394e-16 0)
(0.0296048 -9.79755e-17 0)
(0.21163 6.62424e-18 0)
(0.632105 4.06314e-17 0)
(0.360227 3.27305e-16 0)
(0.0223444 5.5592e-17 0)
(9.44502e-05 -2.00566e-16 0)
(1.37099e-08 -2.74302e-16 0)
(2.09062e-13 9.75778e-18 0)
(-6.21975e-18 0 0)
(1.65425e-21 -5.20415e-17 0)
(6.21799e-18 0 0)
(-5.31239e-17 0 0)
(-5.3122e-17 0 0)
(-1.81933e-21 0 0)
(1.82121e-25 0 0)
(4.74015e-17 0 0)
(7.57931e-83 -9.97462e-17 0)
(-4.74015e-17 0 0)
(-9.9869e-24 0 0)
(-1.70052e-30 0 0)
(9.99174e-24 0 0)
(5.31257e-17 0 0)
(-9.44963e-24 0 0)
(-5.31257e-17 0 0)
(6.21784e-18 8.67359e-18 0)
(2.87618e-24 1.24683e-16 0)
(-6.21591e-18 1.0842e-17 0)
(-3.08317e-42 0 0)
(5.31257e-17 0 0)
(3.95204e-20 0 0)
(-5.31256e-17 0 0)
(-3.95194e-20 0 0)
(5.31257e-17 0 0)
(1.79778e-21 0 0)
(-5.31232e-17 0 0)
(4.10111e-20 0 0)
(5.30793e-17 0 0)
(5.19982e-17 0 0)
(-5.20383e-17 0 0)
(-3.21203e-24 0 0)
(-7.80531e-26 0 0)
(-4.10125e-20 0 0)
(-4.5928e-32 0 0)
(-5.30848e-17 0 0)
(-1.65943e-21 0 0)
(-1.01093e-23 0 0)
(5.31257e-17 0 0)
(4.25271e-20 0 0)
(-5.30799e-17 0 0)
(-4.21307e-20 0 0)
(-1.37999e-71 0 0)
(0 0 0)
(0 0 0)
(8.02117e-75 0 0)
(1.12462e-17 0 0)
(-1.15128e-18 1.0842e-16 0)
(-8.79382e-18 0 0)
(-8.08461e-20 0 0)
(-9.39868e-20 0 0)
(1.11879e-20 0 0)
(-5.21911e-37 0 0)
(-1.26292e-23 0 0)
(1.24716e-17 0 0)
(5.48833e-21 0 0)
(-1.30632e-17 0 0)
(-4.31287e-18 0 0)
(1.19911e-17 0 0)
(3.72712e-18 1.0842e-16 0)
(-1.16549e-17 0 0)
(5.49459e-22 0 0)
(1.76712e-61 0 0)
(-3.81681e-23 0 0)
(6.06761e-26 0 0)
(-2.29789e-18 2.1684e-18 0)
(2.0764e-18 0 0)
(8.89341e-20 0 0)
(3.33002e-20 0 0)
(-1.08811e-19 0 0)
(-8.13274e-19 6.72203e-17 0)
(2.92249e-21 5.42099e-17 0)
(1.06929e-19 0 0)
(7.16043e-48 0 0)
(-4.71869e-17 0 0)
(-2.21647e-36 0 0)
(4.71869e-17 -4.98731e-17 0)
(-1.79285e-29 0 0)
(-1.63073e-18 0 0)
(1.63125e-19 1.04083e-16 0)
(-5.12901e-17 0 0)
(5.40679e-17 0 0)
(-1.26268e-17 0 0)
(1.15085e-17 9.97462e-17 0)
(1.16426e-22 0 0)
(-1.66531e-31 0 0)
(-1.08202e-17 9.32411e-17 0)
(1.95036e-17 0 0)
(6.46216e-15 -6.50519e-17 0)
(2.86089e-10 -6.50519e-18 0)
(2.14974e-06 -9.32412e-17 0)
(0.000830169 -3.03758e-17 0)
(0.0296048 1.56984e-16 0)
(0.21163 3.28563e-16 0)
(0.632105 6.18244e-16 0)
(0.360227 2.758e-16 0)
(0.0223444 -3.39967e-16 0)
(9.44502e-05 -4.22814e-17 0)
(1.37099e-08 -3.25259e-17 0)
(2.09044e-13 7.58939e-18 0)
(-5.31169e-17 0 0)
(4.18565e-19 -5.31257e-17 0)
(5.2002e-17 0 0)
(-5.16158e-17 0 0)
(-5.21932e-17 0 0)
(-4.37974e-19 0 0)
(1.55948e-21 0 0)
(6.21582e-18 0 0)
(2.32556e-80 2.81892e-17 0)
(-6.21582e-18 0 0)
(-4.13059e-20 0 0)
(-1.33849e-25 0 0)
(4.12991e-20 0 0)
(5.31237e-17 0 0)
(-3.76236e-20 0 0)
(-5.20399e-17 0 0)
(5.19982e-17 0 0)
(1.08274e-22 0 0)
(-5.30426e-17 0 0)
(-2.24151e-38 0 0)
(5.30844e-17 0 0)
(5.32233e-18 0 0)
(-5.31237e-17 5.31257e-17 0)
(-5.32287e-18 0 0)
(5.30844e-17 0 0)
(4.32754e-19 0 0)
(-5.23912e-17 0 0)
(5.10864e-18 0 0)
(5.23797e-17 5.31257e-17 0)
(4.71157e-17 0 0)
(-5.22884e-17 0 0)
(-1.94754e-21 0 0)
(-6.90084e-23 0 0)
(-5.10502e-18 0 0)
(-2.43828e-30 -5.31257e-17 0)
(-4.73537e-17 0 0)
(-4.21712e-19 0 0)
(-4.07149e-20 0 0)
(5.30844e-17 0 0)
(5.69883e-18 0 0)
(-5.23904e-17 5.31257e-17 0)
(-5.54728e-18 0 0)
(-4.06204e-67 0 0)
(0 0 0)
(0 0 0)
(1.77571e-72 0 0)
(9.21431e-17 0 0)
(1.80025e-18 0 0)
(-8.01272e-17 0 0)
(-8.20123e-19 1.04083e-16 0)
(-1.11816e-17 0 0)
(4.47249e-19 0 0)
(8.69687e-36 0 0)
(-1.11879e-20 0 0)
(9.20999e-17 0 0)
(5.3486e-19 4.33679e-18 0)
(-9.80852e-17 0 0)
(-3.30067e-18 0 0)
(9.42154e-17 0 0)
(1.56391e-18 0 0)
(-9.37856e-17 0 0)
(2.45696e-19 0 0)
(1.03295e-57 2.1684e-18 0)
(-1.07972e-19 0 0)
(3.44199e-22 0 0)
(-1.89473e-19 0 0)
(6.59989e-21 2.1684e-18 0)
(1.00383e-17 0 0)
(2.50577e-19 1.04083e-16 0)
(-1.20958e-17 0 0)
(-1.09118e-17 0 0)
(5.26774e-20 0 0)
(1.15903e-17 0 0)
(-4.03991e-46 0 0)
(-2.25055e-44 0 0)
(-1.98629e-34 5.42099e-17 0)
(4.34115e-37 5.42099e-17 0)
(7.98393e-28 0 0)
(5.48865e-21 5.42099e-17 0)
(8.48417e-18 2.1684e-18 0)
(-4.68096e-17 1.58293e-16 0)
(3.68528e-17 0 0)
(-9.35493e-17 0 0)
(9.24732e-17 1.06251e-16 0)
(1.3324e-19 0 0)
(6.44393e-30 0 0)
(-7.44106e-18 0 0)
(1.14132e-17 0 0)
(6.28978e-15 -1.2143e-16 0)
(2.8609e-10 -1.73472e-17 0)
(2.14974e-06 7.09067e-16 0)
(0.000830169 -7.81092e-17 0)
(0.0296048 4.93218e-16 0)
(0.21163 5.02118e-16 0)
(0.632105 8.81887e-17 0)
(0.360227 -1.32916e-17 0)
(0.0223444 -1.55016e-16 0)
(9.44502e-05 5.3448e-16 0)
(1.37099e-08 -1.25767e-16 0)
(2.09024e-13 -2.60208e-17 0)
(-5.27671e-17 -5.31257e-17 0)
(5.34006e-18 0 0)
(4.77765e-17 0 0)
(-4.80176e-17 -5.31257e-17 0)
(-4.16494e-17 5.31257e-17 0)
(-5.25639e-18 5.31257e-17 0)
(3.96419e-19 0 0)
(5.30403e-17 5.31257e-17 0)
(3.43203e-77 5.20415e-17 0)
(-5.30403e-17 5.31257e-17 0)
(-6.00628e-18 0 0)
(-1.2481e-21 0 0)
(6.00131e-18 0 0)
(5.30843e-17 5.31257e-17 0)
(-5.3222e-18 0 0)
(-5.26856e-17 0 0)
(4.71157e-17 0 0)
(7.7577e-21 -5.31257e-17 0)
(-4.16197e-17 0 0)
(-2.30501e-36 5.31257e-17 0)
(4.71177e-17 0 0)
(4.69078e-17 0 0)
(-5.30843e-17 0 0)
(-4.69192e-17 0 0)
(4.71157e-17 0 0)
(5.20286e-18 -5.20415e-17 0)
(-4.19787e-17 5.20415e-17 0)
(4.11817e-17 5.31257e-17 0)
(4.15374e-17 0 0)
(3.21225e-24 -5.31257e-17 0)
(-4.25661e-17 -5.20415e-17 0)
(-4.02104e-20 5.09573e-17 0)
(-1.76092e-21 -5.09573e-17 0)
(-4.11218e-17 5.20415e-17 0)
(-1.14918e-28 0 0)
(-4.35812e-19 5.31257e-17 0)
(-5.40072e-18 5.31257e-17 0)
(-5.75556e-18 0 0)
(4.71157e-17 0 0)
(4.89428e-17 -5.31257e-17 0)
(-4.20069e-17 0 0)
(-4.69325e-17 5.31257e-17 0)
(-6.46349e-65 0 0)
(0 5.31257e-17 0)
(-2.1684e-18 -2.1684e-18 0)
(3.65691e-70 -2.1684e-18 0)
(1.42369e-17 -2.1684e-18 0)
(1.1518e-17 0 0)
(8.61749e-17 1.0842e-16 0)
(-1.20666e-17 2.1684e-18 0)
(-9.08326e-17 -2.1684e-18 0)
(1.63097e-18 -2.1684e-18 0)
(7.33553e-35 0 0)
(-4.47249e-19 0 0)
(-4.92495e-19 -4.33679e-18 0)
(2.14454e-18 -9.54094e-17 0)
(5.65194e-18 0 0)
(-3.03247e-19 1.0842e-16 0)
(1.1994e-18 5.42099e-17 0)
(-1.10654e-18 0 0)
(-1.41711e-17 -2.1684e-18 0)
(1.32803e-17 -2.1684e-18 0)
(1.24439e-55 1.04083e-16 0)
(-1.19867e-17 0 0)
(1.92334e-19 0 0)
(1.21184e-17 0 0)
(-1.36222e-19 1.04083e-16 0)
(7.78615e-17 0 0)
(1.85116e-18 2.1684e-18 0)
(-9.50565e-17 -2.1684e-18 0)
(-9.64153e-17 -4.33679e-18 0)
(5.89694e-18 0 0)
(9.24732e-17 -2.1684e-18 0)
(-4.17314e-41 0 0)
(1.09921e-42 0 0)
(-7.96521e-33 0 0)
(2.4845e-35 0 0)
(3.20209e-26 -2.1684e-18 0)
(1.0064e-19 0 0)
(9.25025e-17 0 0)
(-4.33258e-18 2.1684e-18 0)
(-9.00867e-17 -2.1684e-18 0)
(-1.20899e-17 0 0)
(2.07868e-35 0 0)
(1.16736e-17 -2.1684e-18 0)
(4.58524e-25 0 0)
(-2.35027e-17 0 0)
(2.77733e-17 0 0)
(6.29658e-15 -1.0842e-17 0)
(2.86089e-10 -5.42099e-17 0)
(2.14974e-06 1.97324e-16 0)
(0.000830169 -1.49709e-16 0)
(0.0296048 -2.28238e-16 0)
(0.21163 -5.14041e-16 0)
(0.632105 -3.81381e-16 0)
(0.360227 1.54515e-16 0)
(0.0223444 4.42598e-16 0)
(9.44502e-05 1.09498e-16 0)
(1.37099e-08 -1.05167e-16 0)
(2.09054e-13 -2.7105e-17 0)
(-3.58733e-17 0 0)
(4.688e-17 0 0)
(5.75225e-18 0 0)
(-5.03796e-18 0 0)
(4.11536e-17 0 0)
(-4.11536e-17 0 0)
(4.89834e-18 5.31257e-17 0)
(4.15693e-17 5.20415e-17 0)
(7.31024e-75 -5.09573e-17 0)
(-4.15693e-17 5.31257e-17 0)
(-5.30433e-17 5.31257e-17 0)
(-3.32878e-19 0 0)
(5.29719e-17 5.31257e-17 0)
(4.71176e-17 5.31257e-17 0)
(-4.69058e-17 0 0)
(-4.73402e-17 5.31257e-17 0)
(-6.17342e-25 5.31257e-17 0)
(2.56405e-19 0 0)
(4.96076e-17 5.31257e-17 0)
(-5.1717e-31 5.20415e-17 0)
(4.33443e-20 5.31257e-17 0)
(1.98754e-21 0 0)
(-4.71157e-17 0 0)
(-2.63448e-20 5.31257e-17 0)
(1.94901e-35 5.31257e-17 0)
(4.74742e-17 0 0)
(4.69058e-17 5.31257e-17 0)
(-4.69077e-17 5.31257e-17 0)
(-5.26299e-17 0 0)
(1.94759e-21 -5.20415e-17 0)
(5.28482e-17 0 0)
(-5.54606e-18 5.20415e-17 0)
(-4.62811e-19 -5.09573e-17 0)
(4.75643e-17 5.20415e-17 0)
(-1.48085e-25 0 0)
(5.86319e-18 5.31257e-17 0)
(-4.76096e-17 5.31257e-17 0)
(-4.96076e-17 5.31257e-17 0)
(4.93175e-32 5.31257e-17 0)
(-1.31646e-20 0 0)
(4.64099e-17 0 0)
(-4.37416e-19 5.31257e-17 0)
(-9.49421e-63 5.31257e-17 0)
(-5.31257e-17 5.31257e-17 0)
(-2.1684e-18 2.1684e-18 0)
(7.01358e-68 2.1684e-18 0)
(1.08026e-16 2.1684e-18 0)
(9.03616e-17 9.75778e-17 0)
(-1.01768e-16 0 0)
(-9.41335e-17 -1.06251e-16 0)
(1.83009e-29 2.1684e-18 0)
(1.28614e-31 2.1684e-18 0)
(-1.59776e-32 0 0)
(-1.63096e-18 -2.1684e-18 0)
(1.369e-17 -4.98731e-17 0)
(2.02989e-18 9.54094e-17 0)
(8.03846e-17 0 0)
(-2.4688e-18 0 0)
(1.30007e-17 -5.42099e-17 0)
(2.18381e-18 9.32411e-17 0)
(-9.95184e-17 2.1684e-18 0)
(8.55492e-17 2.1684e-18 0)
(2.78503e-53 2.1684e-18 0)
(-9.41335e-17 0 0)
(1.24879e-17 0 0)
(9.59782e-17 1.04083e-16 0)
(-6.68133e-18 2.1684e-18 0)
(-9.41335e-17 0 0)
(8.50785e-30 -1.06251e-16 0)
(-2.06184e-18 2.1684e-18 0)
(-4.39487e-17 -4.98731e-17 0)
(4.71869e-17 0 0)
(-3.97826e-32 2.1684e-18 0)
(-3.77795e-36 0 0)
(9.94869e-38 0 0)
(-5.59539e-28 0 0)
(2.59986e-30 0 0)
(1.12564e-24 2.1684e-18 0)
(1.15728e-17 0 0)
(-2.30569e-24 9.32411e-17 0)
(-1.25348e-17 -9.32411e-17 0)
(-2.03094e-18 2.1684e-18 0)
(-9.08423e-17 0 0)
(-2.30243e-32 0 0)
(9.30682e-17 2.1684e-18 0)
(2.84711e-21 0 0)
(-1.77345e-17 1.06251e-16 0)
(1.94248e-17 -5.42099e-17 0)
(6.3218e-15 1.49619e-16 0)
(2.8609e-10 6.50519e-17 0)
(2.14974e-06 -6.04984e-16 0)
(0.000830169 2.38667e-17 0)
(0.0296048 -3.65182e-16 0)
(0.21163 -7.55164e-17 0)
(0.632105 -1.07581e-16 0)
(0.360227 -2.54201e-16 0)
(0.0223444 1.7426e-16 0)
(9.44502e-05 -5.22554e-16 0)
(1.37099e-08 7.58939e-17 0)
(2.09109e-13 2.81892e-17 0)
(-4.70905e-17 5.31257e-17 0)
(-4.1979e-19 5.31257e-17 0)
(4.73735e-17 0 0)
(-4.69058e-17 5.31257e-17 0)
(-4.73735e-17 0 0)
(4.73735e-17 0 0)
(4.11536e-17 5.20415e-17 0)
(-4.69059e-17 -5.20415e-17 0)
(2.88433e-72 0 0)
(4.69059e-17 -5.20415e-17 0)
(-4.18278e-17 5.20415e-17 0)
(-4.1874e-18 5.31257e-17 0)
(4.9413e-17 0 0)
(4.08733e-20 0 0)
(3.01306e-40 -5.20415e-17 0)
(-4.41157e-19 5.20415e-17 0)
(-3.65836e-23 0 0)
(6.21991e-18 5.31257e-17 0)
(-4.24761e-18 5.20415e-17 0)
(-5.51205e-29 -4.98731e-17 0)
(6.01004e-18 5.20415e-17 0)
(-3.7553e-20 0 0)
(-1.81097e-26 5.20415e-17 0)
(4.19468e-19 5.31257e-17 0)
(2.16331e-30 5.31257e-17 0)
(1.62822e-78 5.31257e-17 0)
(2.27564e-30 0 0)
(-3.95179e-20 0 0)
(-4.69058e-17 5.20415e-17 0)
(4.02101e-20 5.20415e-17 0)
(4.69058e-17 5.31257e-17 0)
(-4.69058e-17 0 0)
(-5.81206e-18 5.20415e-17 0)
(-2.87513e-18 -5.20415e-17 0)
(-4.59808e-24 -5.20415e-17 0)
(4.94942e-17 -5.31257e-17 0)
(3.21832e-18 -5.20415e-17 0)
(4.24761e-18 5.20415e-17 0)
(4.36767e-27 5.31257e-17 0)
(-4.19764e-19 5.31257e-17 0)
(-6.2199e-18 5.09573e-17 0)
(-5.37019e-18 -5.20415e-17 0)
(-1.0842e-18 0 0)
(-1.04083e-16 -5.31257e-17 0)
(0 0 0)
(1.25345e-65 0 0)
(9.25429e-17 0 0)
(1.9988e-18 -9.75778e-17 0)
(-9.19651e-17 -1.0842e-16 0)
(-3.66348e-26 0 0)
(6.36288e-28 0 0)
(2.05559e-29 0 0)
(-1.29998e-27 0 0)
(1.30408e-22 2.1684e-18 0)
(1.06251e-16 5.42099e-17 0)
(-2.22435e-22 1.01915e-16 0)
(-1.04083e-16 0 0)
(-4.33693e-18 -1.0842e-16 0)
(9.41401e-17 0 0)
(2.2962e-18 -9.32411e-17 0)
(-9.38464e-17 0 0)
(1.33204e-24 0 0)
(5.23274e-51 -1.0842e-16 0)
(-9.78504e-30 0 0)
(9.08669e-17 0 0)
(1.53649e-18 2.1684e-18 0)
(-9.19713e-17 -1.0842e-16 0)
(-9.78526e-30 0 0)
(3.34088e-28 0 0)
(-1.3782e-34 0 0)
(-3.59021e-34 5.42099e-17 0)
(1.83186e-37 0 0)
(-7.99045e-31 0 0)
(-2.95327e-31 0 0)
(7.97492e-33 0 0)
(-3.40048e-23 0 0)
(9.1844e-26 0 0)
(3.42161e-23 0 0)
(9.25026e-17 0 0)
(-1.14756e-22 0 0)
(-9.25081e-17 0 0)
(-1.15584e-23 0 0)
(-4.48007e-33 0 0)
(4.27453e-28 0 0)
(5.35573e-19 0 0)
(5.72303e-19 0 0)
(-5.41544e-17 0 0)
(1.08312e-17 0 0)
(6.59876e-15 4.55363e-17 0)
(2.86089e-10 5.85467e-17 0)
(2.14974e-06 -1.92988e-16 0)
(0.000830169 2.58194e-16 0)
(0.0296048 -2.44939e-17 0)
(0.21163 7.94909e-17 0)
(0.632105 5.44831e-17 0)
(0.360227 -5.30833e-16 0)
(0.0223444 -5.02466e-17 0)
(9.44502e-05 -8.99834e-17 0)
(1.37099e-08 1.47451e-16 0)
(2.09064e-13 -9.21569e-17 0)
(-2.34386e-18 0 0)
(-5.36949e-18 0 0)
(5.75231e-18 -5.31257e-17 0)
(-1.73916e-48 0 0)
(-5.75233e-18 0 0)
(5.7522e-18 0 0)
(-4.73735e-17 0 0)
(-1.80012e-21 -5.20415e-17 0)
(1.05038e-69 5.09573e-17 0)
(1.80012e-21 -5.20415e-17 0)
(4.69079e-17 0 0)
(-5.31257e-17 0 0)
(6.21934e-18 -5.31257e-17 0)
(5.78928e-18 0 0)
(1.89978e-38 0 0)
(-5.80922e-18 0 0)
(-1.80043e-21 -5.31257e-17 0)
(5.20415e-17 0 0)
(-5.20415e-17 0 0)
(-2.6933e-25 -5.31257e-17 0)
(5.31257e-17 0 0)
(-5.34603e-18 0 0)
(-6.42586e-25 -5.20415e-17 0)
(5.36423e-18 0 0)
(1.10486e-28 0 0)
(2.07739e-76 0 0)
(1.77138e-25 0 0)
(-5.32358e-18 0 0)
(1.25028e-23 -5.09573e-17 0)
(5.54613e-18 5.20415e-17 0)
(3.75947e-30 0 0)
(-2.88369e-29 0 0)
(-5.31257e-17 5.20415e-17 0)
(-4.74017e-17 -5.09573e-17 0)
(-1.20184e-22 4.98731e-17 0)
(-3.94423e-18 -5.20415e-17 0)
(5.31256e-17 -5.31257e-17 0)
(5.31257e-17 0 0)
(1.73365e-25 0 0)
(-5.36859e-18 0 0)
(-5.31254e-17 -5.20415e-17 0)
(-4.74003e-17 -5.31257e-17 0)
(-6.37234e-58 -5.31257e-17 0)
(-1.0842e-18 -5.31257e-17 0)
(0 0 0)
(4.17516e-60 0 0)
(7.02914e-24 0 0)
(-2.21722e-18 -1.0842e-16 0)
(2.16773e-18 0 0)
(-1.87528e-22 0 0)
(3.81681e-23 0 0)
(4.97677e-24 0 0)
(-7.95001e-23 0 0)
(5.5834e-21 0 0)
(1.06249e-16 0 0)
(-5.30107e-21 0 0)
(-1.06251e-16 0 0)
(-4.34018e-18 0 0)
(1.20398e-19 0 0)
(4.32289e-18 -9.32411e-17 0)
(-1.13815e-19 0 0)
(-3.76888e-23 0 0)
(4.69438e-49 0 0)
(3.26811e-28 0 0)
(9.48764e-20 0 0)
(-2.10228e-18 -9.32411e-17 0)
(2.05675e-18 0 0)
(3.26818e-28 0 0)
(1.12473e-23 0 0)
(-1.11544e-29 0 0)
(-1.53046e-32 0 0)
(1.52887e-32 0 0)
(-2.58772e-26 0 0)
(-1.95737e-26 0 0)
(5.60199e-28 0 0)
(-1.00636e-19 0 0)
(6.8901e-23 0 0)
(1.0117e-19 0 0)
(5.55679e-23 0 0)
(-4.63177e-21 -1.0842e-16 0)
(-5.56291e-21 0 0)
(2.63051e-22 0 0)
(-3.78067e-28 0 0)
(2.72579e-23 0 0)
(-5.86621e-18 0 0)
(6.1807e-18 -5.42099e-17 0)
(-4.82054e-17 0 0)
(2.81818e-18 0 0)
(6.55932e-15 -1.30104e-17 0)
(2.8609e-10 1.14925e-16 0)
(2.14974e-06 2.62376e-16 0)
(0.000830169 -2.1697e-18 0)
(0.0296048 -1.3249e-16 0)
(0.21163 -3.12664e-16 0)
(0.632105 -4.57104e-17 0)
(0.360227 2.40079e-16 0)
(0.0223444 -8.98025e-17 0)
(9.44502e-05 1.94061e-16 0)
(1.37099e-08 3.07912e-16 0)
(2.09278e-13 -1.40946e-17 0)
(-3.69628e-17 0 0)
(-4.74017e-17 0 0)
(4.73752e-17 0 0)
(-1.94055e-43 0 0)
(-4.73756e-17 0 0)
(4.73721e-17 0 0)
(-5.75225e-18 0 0)
(-3.64857e-20 0 0)
(3.50544e-67 0 0)
(3.64857e-20 0 0)
(4.33487e-20 0 0)
(-5.204e-17 -5.20415e-17 0)
(5.20295e-17 0 0)
(5.30836e-17 0 0)
(8.79853e-37 5.20415e-17 0)
(-5.30836e-17 0 0)
(-3.6494e-20 0 0)
(5.20412e-17 0 0)
(-5.20039e-17 0 0)
(-9.18042e-24 0 0)
(5.31241e-17 0 0)
(-4.7307e-17 0 0)
(-3.83453e-23 0 0)
(4.72887e-17 0 0)
(3.1365e-24 0 0)
(4.79599e-71 0 0)
(1.55916e-21 0 0)
(-4.6935e-17 0 0)
(6.30372e-22 0 0)
(4.69077e-17 0 0)
(-1.42663e-28 0 0)
(1.2726e-27 0 0)
(-5.31257e-17 0 0)
(-6.21983e-18 0 0)
(-5.03952e-21 0 0)
(-4.73335e-17 0 0)
(5.31238e-17 0 0)
(5.31233e-17 0 0)
(1.61811e-21 0 0)
(-4.73813e-17 0 0)
(-5.31125e-17 0 0)
(-6.19166e-18 0 0)
(-7.31477e-56 0 0)
(0 0 0)
(0 0 0)
(8.77103e-56 0 0)
(-1.93699e-22 0 0)
(-2.96082e-18 0 0)
(2.07347e-18 0 0)
(-2.31562e-20 0 0)
(1.07972e-19 0 0)
(2.07627e-20 0 0)
(-1.97219e-19 0 0)
(1.9819e-19 -2.1684e-18 0)
(1.05752e-16 0 0)
(-1.08029e-18 0 0)
(-1.06157e-16 0 0)
(-5.14768e-18 0 0)
(1.32898e-17 0 0)
(4.41696e-18 9.32411e-17 0)
(-1.2145e-17 0 0)
(-1.09961e-19 0 0)
(7.65473e-44 0 0)
(1.99225e-23 0 0)
(1.01118e-17 0 0)
(-1.69698e-18 9.32411e-17 0)
(-8.86885e-18 0 0)
(1.99228e-23 0 0)
(1.00831e-20 0 0)
(-8.09233e-25 0 0)
(-1.14669e-27 0 0)
(1.14589e-27 0 0)
(-2.6562e-22 0 0)
(-1.1627e-22 0 0)
(3.40157e-23 0 0)
(-1.15287e-17 0 0)
(1.59759e-21 -1.06251e-16 0)
(1.15888e-17 0 0)
(-4.33957e-22 0 0)
(-8.49716e-20 2.1684e-18 0)
(9.56499e-20 0 0)
(1.87212e-20 0 0)
(-7.83728e-24 0 0)
(9.47339e-20 0 0)
(-4.71871e-17 0 0)
(4.84371e-17 0 0)
(-5.3221e-18 0 0)
(-3.71491e-17 0 0)
(6.56577e-15 4.33679e-18 0)
(2.8609e-10 -3.25259e-17 0)
(2.14974e-06 2.60208e-17 0)
(0.000830169 -1.4103e-16 0)
(0.0296048 2.14878e-16 0)
(0.21163 1.76205e-16 0)
(0.632105 -5.17127e-17 0)
(0.360227 5.31663e-17 0)
(0.0223444 -2.80098e-16 0)
(9.44502e-05 1.84303e-17 0)
(1.37099e-08 -1.30104e-17 0)
(2.09077e-13 9.64936e-17 0)
(-5.50806e-18 0 0)
(-6.21983e-18 0 0)
(5.78702e-18 0 0)
(-1.97225e-38 0 0)
(-5.79408e-18 0 0)
(5.72405e-18 0 0)
(-4.73735e-17 0 0)
(-4.86829e-18 0 0)
(1.0635e-64 -5.31257e-17 0)
(4.86829e-18 0 0)
(6.00804e-18 0 0)
(-5.30934e-17 5.20415e-17 0)
(4.97967e-17 0 0)
(4.75268e-17 0 0)
(1.3565e-35 -5.20415e-17 0)
(-4.75532e-17 0 0)
(-4.85349e-18 0 0)
(5.31182e-17 -5.31257e-17 0)
(-4.78025e-17 0 0)
(-3.76236e-20 0 0)
(5.27051e-17 0 0)
(4.62883e-19 0 0)
(-1.90505e-21 5.31257e-17 0)
(-4.09791e-19 0 0)
(1.95584e-21 0 0)
(4.19359e-67 0 0)
(3.9749e-19 0 0)
(-2.72356e-20 0 0)
(2.57192e-20 5.20415e-17 0)
(3.95204e-20 0 0)
(-9.81512e-24 0 0)
(2.20364e-23 0 0)
(-5.31135e-17 0 0)
(-5.31237e-17 0 0)
(-1.65549e-19 -5.31257e-17 0)
(-3.86711e-19 0 0)
(5.26302e-17 0 0)
(5.23912e-17 0 0)
(4.39222e-19 0 0)
(-4.31821e-19 0 0)
(-5.2705e-17 5.31257e-17 0)
(-5.26567e-17 0 0)
(-6.83167e-52 0 0)
(0 0 0)
(0 1.06251e-16 0)
(1.18754e-53 0 0)
(-4.5553e-21 9.32411e-17 0)
(-1.16435e-17 -9.10727e-17 0)
(1.25465e-18 2.1684e-18 0)
(-1.43518e-19 0 0)
(1.19867e-17 0 0)
(9.58154e-19 1.06251e-16 0)
(-1.97511e-17 0 0)
(1.99805e-17 0 0)
(1.00147e-16 9.32411e-17 0)
(-1.20126e-17 -9.32411e-17 0)
(-9.45044e-17 0 0)
(-1.37974e-17 -1.04083e-16 0)
(1.0756e-16 4.98731e-17 0)
(1.03377e-17 0 0)
(-9.29956e-17 1.06251e-16 0)
(-1.25923e-17 0 0)
(3.38606e-40 0 0)
(6.09521e-20 0 0)
(7.81277e-17 0 0)
(1.78398e-18 -4.33679e-18 0)
(-8.03309e-17 0 0)
(6.0951e-20 0 0)
(4.16385e-19 0 0)
(-5.16077e-21 0 0)
(-7.41057e-23 0 0)
(7.40403e-23 0 0)
(-2.02554e-19 0 0)
(-2.51176e-20 0 0)
(1.01176e-19 0 0)
(-9.20073e-17 0 0)
(5.87767e-20 0 0)
(9.24733e-17 0 0)
(-1.10482e-19 0 0)
(-1.14774e-17 0 0)
(1.17975e-17 0 0)
(6.11835e-20 0 0)
(-4.53702e-21 0 0)
(1.21855e-17 0 0)
(-3.33331e-21 1.04083e-16 0)
(-1.02949e-17 5.42099e-17 0)
(-3.54307e-17 0 0)
(-9.64884e-19 1.04083e-16 0)
(6.52807e-15 -3.90311e-17 0)
(2.8609e-10 -4.27174e-16 0)
(2.14974e-06 2.05998e-16 0)
(0.000830169 1.08485e-17 0)
(0.0296048 1.83704e-16 0)
(0.21163 5.98832e-16 0)
(0.632105 3.05659e-16 0)
(0.360227 1.21286e-16 0)
(0.0223444 -6.52137e-17 0)
(9.44502e-05 1.39854e-16 0)
(1.37099e-08 -4.9331e-16 0)
(2.09076e-13 -1.40946e-16 0)
(-4.50921e-17 0 0)
(-5.31238e-17 0 0)
(4.79233e-17 -5.31257e-17 0)
(-1.77992e-33 0 0)
(-4.80173e-17 -5.31257e-17 0)
(4.69058e-17 0 0)
(-5.7535e-18 -5.31257e-17 0)
(-4.09531e-17 0 0)
(1.45913e-62 0 0)
(4.09531e-17 0 0)
(5.30809e-17 -5.20415e-17 0)
(-4.76078e-17 5.20415e-17 0)
(-4.07255e-18 0 0)
(5.28627e-18 -5.31257e-17 0)
(9.47784e-35 0 0)
(-5.75261e-18 -5.31257e-17 0)
(-4.06898e-17 0 0)
(5.28797e-17 0 0)
(-6.19848e-18 0 0)
(-5.3222e-18 0 0)
(4.77306e-17 -5.31257e-17 0)
(6.21602e-18 -5.31257e-17 0)
(-3.91307e-20 0 0)
(-5.7597e-18 -5.31257e-17 0)
(4.03575e-20 -5.31257e-17 0)
(3.52081e-65 -5.31257e-17 0)
(4.92652e-18 -5.31257e-17 0)
(4.3663e-19 0 0)
(4.18745e-19 -5.20415e-17 0)
(5.32234e-18 0 0)
(-4.05137e-20 0 0)
(9.44496e-21 0 0)
(-4.97129e-17 0 0)
(-5.3083e-17 5.31257e-17 0)
(-4.12224e-18 0 0)
(4.85977e-18 0 0)
(4.69078e-17 5.20415e-17 0)
(4.19727e-17 -5.20415e-17 0)
(5.76095e-18 -5.31257e-17 0)
(5.7135e-18 0 0)
(-4.77306e-17 0 0)
(-4.73453e-17 5.31257e-17 0)
(-6.05092e-50 5.31257e-17 0)
(-1.0842e-18 5.31257e-17 0)
(1.01915e-16 0 0)
(-1.45902e-51 0 0)
(-8.68485e-20 0 0)
(-9.32727e-17 0 0)
(-4.26447e-18 -5.42099e-17 0)
(5.5771e-18 0 0)
(9.41335e-17 0 0)
(2.721e-17 0 0)
(-1.50814e-16 0 0)
(1.38853e-16 1.04083e-16 0)
(-7.42301e-18 -2.1684e-18 0)
(-9.15652e-17 -1.01915e-16 0)
(-8.12961e-18 0 0)
(-8.73258e-17 -2.1684e-18 0)
(9.59016e-17 4.33679e-18 0)
(9.53965e-17 -1.0842e-16 0)
(-8.86852e-19 0 0)
(-1.0141e-16 0 0)
(2.02665e-38 -2.1684e-18 0)
(7.16122e-18 0 0)
(-9.81179e-17 0 0)
(-1.23541e-18 -1.69135e-16 0)
(9.20407e-17 -2.1684e-18 0)
(7.16101e-18 0 0)
(1.63097e-18 0 0)
(-1.04752e-18 0 0)
(-1.95479e-19 0 0)
(1.95468e-19 0 0)
(-1.36439e-17 0 0)
(-3.11922e-19 -4.33679e-18 0)
(1.16636e-17 0 0)
(1.63097e-18 0 0)
(1.67004e-18 1.06251e-16 0)
(-4.39868e-23 0 0)
(-5.19273e-18 0 0)
(-8.86739e-17 -9.54094e-17 0)
(9.62111e-17 0 0)
(-1.09897e-17 0 0)
(-9.87524e-20 -1.06251e-16 0)
(1.04056e-16 0 0)
(-7.28883e-20 0 0)
(-9.12097e-17 0 0)
(7.6589e-17 0 0)
(-5.6396e-17 5.42099e-17 0)
(6.24986e-15 -2.53702e-16 0)
(2.86089e-10 6.50519e-18 0)
(2.14974e-06 2.14672e-16 0)
(0.000830169 2.49515e-16 0)
(0.0296048 -1.77024e-16 0)
(0.21163 -3.51085e-16 0)
(0.632105 -5.54065e-17 0)
(0.360227 3.24813e-16 0)
(0.0223444 1.47533e-16 0)
(9.44502e-05 6.50483e-18 0)
(1.37099e-08 -1.19262e-17 0)
(2.09445e-13 -9.43252e-17 0)
(7.34874e-18 0 0)
(-5.26301e-17 0 0)
(5.64896e-18 0 0)
(-1.4108e-28 0 0)
(-5.03951e-18 0 0)
(6.76235e-23 0 0)
(-4.73994e-17 -5.20415e-17 0)
(4.96894e-17 0 0)
(3.54782e-57 0 0)
(-4.96894e-17 0 0)
(4.69886e-17 -5.31257e-17 0)
(2.60854e-18 -5.31257e-17 0)
(-4.9723e-17 5.20415e-17 0)
(4.16564e-17 -5.09573e-17 0)
(-1.85475e-30 0 0)
(-4.73807e-17 -5.20415e-17 0)
(5.30453e-17 0 0)
(4.72424e-17 5.09573e-17 0)
(-5.27753e-17 -5.20415e-17 0)
(-4.69058e-17 0 0)
(5.28652e-18 -5.20415e-17 0)
(5.30453e-17 0 0)
(-5.10862e-18 0 0)
(-5.22646e-17 -5.31257e-17 0)
(5.20453e-18 -5.20415e-17 0)
(2.6291e-63 0 0)
(4.16481e-17 -5.20415e-17 0)
(5.2282e-18 -5.31257e-17 0)
(5.34081e-18 0 0)
(4.69079e-17 0 0)
(-5.7035e-18 0 0)
(1.57101e-19 -5.31257e-17 0)
(2.46656e-18 0 0)
(-4.69944e-17 5.31257e-17 0)
(-5.30824e-17 5.31257e-17 0)
(4.1153e-17 0 0)
(4.08734e-20 0 0)
(-4.70125e-17 -5.31257e-17 0)
(5.22655e-17 -5.31257e-17 0)
(5.21622e-17 0 0)
(-5.28653e-18 0 0)
(-5.28452e-18 0 0)
(-1.0842e-18 0 0)
(-1.02999e-16 0 0)
(8.67359e-18 0 0)
(-1.68222e-49 1.06251e-16 0)
(-1.07625e-17 0 0)
(-1.68547e-17 1.04083e-16 0)
(-3.09092e-17 4.98731e-17 0)
(5.73398e-17 1.06251e-16 0)
(-1.34335e-69 1.06251e-16 0)
(8.45749e-23 0 0)
(5.8852e-17 1.06251e-16 0)
(-7.33099e-18 4.33679e-18 0)
(-1.34719e-16 -1.45283e-16 0)
(5.42363e-17 0 0)
(-4.9119e-17 1.06251e-16 0)
(-1.31273e-17 1.04083e-16 0)
(5.37046e-17 0 0)
(1.39391e-17 0 0)
(1.07172e-17 0 0)
(-5.73381e-17 1.06251e-16 0)
(2.13851e-36 0 0)
(5.73381e-17 1.06251e-16 0)
(-5.73293e-17 1.06251e-16 0)
(-1.35329e-17 6.28835e-17 0)
(1.29711e-17 0 0)
(5.73395e-17 1.06251e-16 0)
(-4.02317e-23 1.06251e-16 0)
(-1.13214e-17 1.06251e-16 0)
(-1.90006e-17 0 0)
(1.90197e-17 0 0)
(-9.38746e-17 1.06251e-16 0)
(-2.31671e-17 2.1684e-18 0)
(9.36125e-17 0 0)
(5.10558e-25 0 0)
(2.2437e-17 0 0)
(-1.01787e-21 1.06251e-16 0)
(-5.72033e-17 0 0)
(2.60172e-22 9.32411e-17 0)
(6.02648e-17 0 0)
(-9.69379e-17 1.06251e-16 0)
(-1.13515e-17 -6.28835e-17 0)
(9.31897e-17 0 0)
(-1.03324e-18 -1.04083e-16 0)
(-4.50901e-18 -5.42099e-17 0)
(5.81054e-18 0 0)
(-7.17017e-17 -1.04083e-16 0)
(6.32067e-15 1.0842e-17 0)
(2.8609e-10 3.46943e-16 0)
(2.14974e-06 -3.3827e-16 0)
(0.000830169 4.3394e-18 0)
(0.0296048 1.20243e-16 0)
(0.21163 -1.13937e-16 0)
(0.632105 6.04854e-17 0)
(0.360227 -1.57007e-16 0)
(0.0223444 -2.45888e-17 0)
(9.44502e-05 -1.3877e-16 0)
(1.37099e-08 1.10588e-16 0)
(2.09312e-13 1.26851e-16 0)
(-4.08058e-17 0 0)
(-4.69055e-17 -5.09573e-17 0)
(5.30836e-17 5.20415e-17 0)
(-9.69139e-24 0 0)
(-4.69325e-17 5.31257e-17 0)
(2.78744e-20 0 0)
(-6.17402e-18 5.20415e-17 0)
(-3.1572e-18 0 0)
(3.83975e-55 -5.31257e-17 0)
(3.1572e-18 0 0)
(2.30877e-24 5.20415e-17 0)
(4.26005e-17 -5.20415e-17 0)
(3.1919e-18 0 0)
(-4.10488e-17 5.20415e-17 0)
(-8.72114e-26 0 0)
(-5.8629e-18 5.20415e-17 0)
(4.20123e-17 0 0)
(4.24446e-18 -5.20415e-17 0)
(-4.41277e-17 0 0)
(7.14041e-25 5.31257e-17 0)
(4.16618e-17 5.20415e-17 0)
(4.1985e-17 0 0)
(-4.11817e-17 -5.20415e-17 0)
(-4.19464e-17 5.20415e-17 0)
(4.11817e-17 5.20415e-17 0)
(3.46808e-58 0 0)
(-4.11817e-17 5.20415e-17 0)
(4.0686e-17 0 0)
(4.6896e-17 0 0)
(4.33522e-20 0 0)
(-4.90207e-17 -5.31257e-17 0)
(3.82183e-18 0 0)
(4.07148e-17 0 0)
(-2.59523e-20 -5.20415e-17 0)
(-4.71157e-17 5.20415e-17 0)
(-4.73855e-17 0 0)
(5.78923e-18 0 0)
(-4.19624e-19 5.31257e-17 0)
(4.19732e-17 5.20415e-17 0)
(4.11536e-17 -5.20415e-17 0)
(-4.16619e-17 -5.31257e-17 0)
(-4.16195e-17 0 0)
(-7.06655e-43 0 0)
(-2.1684e-18 0 0)
(1.90819e-16 0 0)
(-3.56337e-47 0 0)
(-8.91191e-17 0 0)
(-9.63086e-17 0 0)
(9.02739e-17 2.1684e-18 0)
(9.14452e-17 0 0)
(-1.89957e-67 0 0)
(-2.46597e-21 0 0)
(-9.24929e-17 0 0)
(-8.97124e-17 -1.06251e-16 0)
(1.33203e-17 4.11995e-17 0)
(9.38007e-17 1.01915e-16 0)
(-5.1788e-18 0 0)
(-9.51432e-17 2.1684e-18 0)
(-3.73498e-18 -4.33679e-18 0)
(1.04447e-16 2.1684e-18 0)
(8.91976e-17 0 0)
(-9.14157e-17 0 0)
(-2.03571e-34 2.1684e-18 0)
(9.14157e-17 0 0)
(-9.25715e-17 0 0)
(-9.58763e-17 4.33679e-18 0)
(8.98118e-17 2.1684e-18 0)
(9.15201e-17 0 0)
(-1.87621e-21 0 0)
(-9.37736e-17 0 0)
(-1.31147e-16 0 0)
(1.31417e-16 0 0)
(-8.15747e-18 0 0)
(-1.78505e-16 0 0)
(6.62303e-18 0 0)
(2.78042e-21 0 0)
(1.81678e-16 0 0)
(-3.7431e-20 0 0)
(-1.01746e-16 0 0)
(3.99145e-21 0 0)
(1.01788e-16 0 0)
(-5.43019e-20 0 0)
(-9.40694e-17 1.69135e-16 0)
(1.9447e-33 0 0)
(-3.97713e-18 0 0)
(-4.50622e-17 0 0)
(4.08695e-17 0 0)
(4.97904e-18 -4.33679e-18 0)
(6.3035e-15 2.32018e-16 0)
(2.86089e-10 -1.45283e-16 0)
(2.14974e-06 -2.79724e-16 0)
(0.000830169 -1.90934e-16 0)
(0.0296048 -1.78137e-17 0)
(0.21163 1.98727e-17 0)
(0.632105 -1.1543e-17 0)
(0.360227 1.41223e-17 0)
(0.0223444 1.02631e-16 0)
(9.44502e-05 -1.84303e-17 0)
(1.37099e-08 -2.72134e-16 0)
(2.09146e-13 -7.58939e-18 0)
(-4.52697e-17 0 0)
(7.56142e-21 5.20415e-17 0)
(4.75532e-17 5.31257e-17 0)
(-4.1299e-20 0 0)
(-4.37416e-19 5.31257e-17 0)
(4.61752e-19 5.31257e-17 0)
(-5.23897e-17 5.31257e-17 0)
(-5.2658e-17 0 0)
(7.20885e-53 0 0)
(5.2658e-17 0 0)
(-6.87876e-23 5.31257e-17 0)
(-5.18061e-17 0 0)
(5.16088e-17 -5.09573e-17 0)
(4.84379e-17 5.20415e-17 0)
(-7.86538e-23 0 0)
(-4.85346e-17 5.31257e-17 0)
(-4.69058e-17 0 0)
(5.29493e-17 0 0)
(4.11573e-17 5.31257e-17 0)
(2.18031e-23 0 0)
(-4.09564e-17 5.31257e-17 0)
(-4.73816e-17 0 0)
(4.69078e-17 0 0)
(4.73721e-17 5.31257e-17 0)
(-4.69077e-17 5.31257e-17 0)
(3.93937e-53 0 0)
(4.69077e-17 5.31257e-17 0)
(-5.31239e-17 5.20415e-17 0)
(-1.65575e-19 -5.20415e-17 0)
(6.0063e-18 0 0)
(2.46844e-19 0 0)
(4.84444e-17 5.31257e-17 0)
(-5.26431e-17 0 0)
(4.11633e-19 -5.20415e-17 0)
(-4.63266e-38 0 0)
(-5.94275e-18 0 0)
(5.30824e-17 0 0)
(5.53592e-18 5.31257e-17 0)
(-4.69078e-17 5.31257e-17 0)
(-4.73735e-17 0 0)
(4.09534e-17 0 0)
(4.16578e-17 0 0)
(-9.36034e-38 0 0)
(-1.04083e-16 0 0)
(8.67359e-18 -1.06251e-16 0)
(-6.93854e-45 -1.06251e-16 0)
(1.24767e-18 -1.06251e-16 0)
(7.87194e-18 0 0)
(9.84312e-19 9.75778e-17 0)
(-1.29043e-17 -9.54094e-17 0)
(-2.32573e-65 -1.06251e-16 0)
(-4.96265e-20 -1.06251e-16 0)
(4.90223e-20 -1.06251e-16 0)
(-5.28956e-18 0 0)
(1.01718e-16 -5.42099e-17 0)
(2.86395e-19 4.33679e-18 0)
(-7.99591e-17 -9.10727e-17 0)
(-3.81591e-18 9.32411e-17 0)
(-5.61625e-17 -4.98731e-17 0)
(5.06395e-17 0 0)
(-1.0235e-19 -1.06251e-16 0)
(1.35381e-17 -9.75778e-17 0)
(-8.43135e-33 9.10727e-17 0)
(-1.35381e-17 -9.75778e-17 0)
(5.29207e-19 -1.06251e-16 0)
(6.56878e-18 0 0)
(-1.47521e-19 9.75778e-17 0)
(-1.18892e-17 -9.54094e-17 0)
(-7.09151e-20 -1.06251e-16 0)
(7.72541e-19 -1.06251e-16 0)
(-5.1395e-20 0 0)
(-3.1132e-19 0 0)
(-9.26372e-17 -1.06251e-16 0)
(7.12068e-20 -1.51788e-16 0)
(9.81879e-17 0 0)
(4.55941e-19 0 0)
(5.19751e-20 0 0)
(-1.06485e-18 -1.06251e-16 0)
(-3.78107e-17 0 0)
(4.60921e-20 1.04083e-16 0)
(3.93298e-17 0 0)
(-1.08509e-18 -1.06251e-16 0)
(-7.49197e-18 0 0)
(4.40993e-30 -6.50519e-18 0)
(1.20072e-17 0 0)
(-8.77417e-19 5.42099e-17 0)
(-4.61744e-17 0 0)
(1.30169e-17 -4.98731e-17 0)
(6.55764e-15 1.0842e-17 0)
(2.86089e-10 1.73472e-17 0)
(2.14974e-06 -4.3368e-18 0)
(0.000830169 8.6788e-18 0)
(0.0296048 -2.22672e-18 0)
(0.21163 1.32485e-18 0)
(0.632105 -9.23442e-19 0)
(0.360227 3.3229e-18 0)
(0.0223444 1.61431e-16 0)
(9.44502e-05 -2.76455e-16 0)
(1.37099e-08 2.1684e-18 0)
(2.09374e-13 -1.53956e-16 0)
(6.88094e-18 0 0)
(2.48017e-19 0 0)
(5.75354e-18 0 0)
(-6.00967e-18 0 0)
(-5.37019e-18 -5.31257e-17 0)
(5.7874e-18 -5.31257e-17 0)
(-4.19512e-17 0 0)
(-4.73733e-17 5.31257e-17 0)
(1.15549e-50 5.31257e-17 0)
(4.73733e-17 5.31257e-17 0)
(-1.75017e-21 0 0)
(-4.80118e-17 5.31257e-17 0)
(4.79261e-17 5.20415e-17 0)
(-2.48491e-18 0 0)
(-2.00174e-21 -5.20415e-17 0)
(2.81578e-18 0 0)
(-3.1674e-24 5.31257e-17 0)
(4.8938e-17 5.31257e-17 0)
(-4.7295e-17 0 0)
(9.28137e-21 0 0)
(4.96344e-17 0 0)
(-5.88207e-18 5.20415e-17 0)
(4.2135e-20 0 0)
(5.72413e-18 0 0)
(-3.9531e-20 0 0)
(1.96899e-51 5.20415e-17 0)
(3.9531e-20 0 0)
(-5.3088e-17 0 0)