/*--------------------------------*- C++ -*----------------------------------*\
| =========                 |                                                 |
| \\      /  F ield         | OpenFOAM: The Open Source CFD Toolbox           |
|  \\    /   O peration     | Version:  4.1                                   |
|   \\  /    A nd           | Web:      www.OpenFOAM.org                      |
|    \\/     M anipulation  |                                                 |
\*---------------------------------------------------------------------------*/
FoamFile
{
    version     2.0;
    format      ascii;
    class       volVectorField;
    location    "0.05";
    object      U;
}
// * * * * * * * * * * * * * * * * * * * * * * * * * * * * * * * * * * * * * //

dimensions      [0 1 -1 0 0 0 0];

internalField   nonuniform List<vector> 
10000
(
(0 0 0)
(1.14626e-18 0 0)
(3.0511e-17 0 0)
(7.65457e-19 7.58939e-17 0)
(-1.92881e-17 0 0)
(-8.09986e-19 0 0)
(-1.62804e-18 0 0)
(3.59396e-20 0 0)
(5.60644e-35 0 0)
(7.73201e-17 1.06251e-16 0)
(2.7449e-16 0 0)
(-1.16695e-17 -1.47451e-16 0)
(-2.98914e-16 0 0)
(-5.34228e-17 0 0)
(3.08792e-17 0 0)
(3.12098e-18 8.02307e-17 0)
(-3.24491e-17 0 0)
(-7.93768e-19 0 0)
(-9.21322e-24 0 0)
(-8.82801e-21 0 0)
(3.49348e-24 0 0)
(-3.80986e-18 9.32411e-17 0)
(2.11782e-18 0 0)
(1.31741e-18 0 0)
(3.54389e-20 0 0)
(-9.72163e-19 0 0)
(-1.53781e-16 -1.17093e-16 0)
(4.4364e-19 2.81892e-17 0)
(1.48728e-16 0 0)
(9.42864e-20 1.2143e-16 0)
(-7.96458e-17 0 0)
(-5.96078e-27 -1.0842e-16 0)
(5.9242e-17 -2.1684e-18 0)
(-1.21735e-16 0 0)
(-5.1111e-19 0 0)
(9.78955e-18 1.32272e-16 0)
(-4.42897e-17 0 0)
(3.31977e-17 0 0)
(-1.53374e-16 0 0)
(1.72175e-17 -1.06251e-16 0)
(2.3786e-16 0 0)
(5.66461e-14 4.33679e-18 0)
(1.15042e-09 7.06897e-16 0)
(1.99263e-06 -1.30104e-16 0)
(0.000350417 -2.66792e-16 0)
(0.0095408 -3.16758e-15 0)
(0.0669282 -4.57849e-15 0)
(0.204367 2.06234e-15 0)
(0.390027 -1.45672e-15 0)
(0.640421 4.84225e-16 0)
(0.886933 2.32703e-15 0)
(0.956128 2.80262e-15 0)
(0.933439 2.50285e-15 0)
(0.850579 1.87956e-15 0)
(0.530527 -1.98213e-15 0)
(0.101862 3.61484e-16 0)
(0.00230613 2.13176e-16 0)
(4.26034e-06 -1.2002e-15 0)
(4.6321e-10 -4.87889e-17 0)
(1.25857e-14 -6.50519e-18 0)
(-1.95479e-16 0 0)
(-5.60937e-17 0 0)
(3.81049e-19 0 0)
(1.02668e-16 -6.61361e-17 0)
(-1.5716e-19 -2.15755e-16 0)
(-1.04122e-16 -5.74625e-17 0)
(-1.31409e-18 0 0)
(-1.47594e-21 0 0)
(5.88473e-17 0 0)
(2.02772e-16 0 0)
(1.07575e-17 0 0)
(-1.5813e-16 0 0)
(5.15079e-18 1.07336e-16 0)
(-1.19269e-17 3.43691e-16 0)
(-9.33396e-17 1.44198e-16 0)
(3.4408e-17 0 0)
(2.09681e-16 0 0)
(5.19251e-18 0 0)
(-1.947e-16 5.63783e-17 0)
(4.36048e-18 0 0)
(2.0791e-16 0 0)
(4.48384e-18 0 0)
(-1.99212e-16 0 0)
(5.67742e-18 0 0)
(2.08738e-16 4.44521e-17 0)
(8.2501e-17 0 0)
(-9.62585e-17 0 0)
(-9.51426e-19 0 0)
(-3.79105e-20 0 0)
(-9.85854e-18 0 0)
(-4.89037e-17 -4.33679e-18 0)
(-1.7903e-16 0 0)
(-2.59767e-17 0 0)
(5.5159e-17 0 0)
(2.08876e-16 0 0)
(5.48653e-18 0 0)
(-1.95643e-16 5.42099e-17 0)
(-5.8003e-17 0 0)
(-7.88943e-20 0 0)
(0 0 0)
(0 0 0)
(1.90255e-17 0 0)
(1.38432e-16 7.58939e-17 0)
(7.0383e-18 2.60208e-16 0)
(-1.06486e-16 7.58939e-17 0)
(-1.55395e-17 7.37255e-17 0)
(-3.04938e-17 0 0)
(-4.21668e-19 0 0)
(7.22884e-34 0 0)
(1.46591e-17 0 0)
(1.5148e-16 0 0)
(3.93478e-22 0 0)
(-1.83687e-16 0 0)
(-3.85352e-18 0 0)
(1.43052e-16 8.02307e-17 0)
(2.1594e-18 2.58039e-16 0)
(-1.28353e-16 8.02307e-17 0)
(-1.19274e-17 0 0)
(-5.61546e-21 0 0)
(-1.5305e-18 0 0)
(3.97034e-21 0 0)
(-6.07461e-18 2.1684e-18 0)
(1.88356e-18 0 0)
(2.39668e-17 0 0)
(3.83066e-19 6.28835e-17 0)
(-2.36672e-17 0 0)
(-3.46945e-17 6.72203e-17 0)
(9.58046e-19 2.10334e-16 0)
(2.26952e-17 1.73472e-17 0)
(6.03002e-19 0 0)
(-1.42108e-16 0 0)
(-2.66061e-25 0 0)
(1.42108e-16 -9.10727e-17 0)
(3.77912e-20 0 0)
(1.97037e-18 7.58939e-17 0)
(2.38809e-17 3.16586e-16 0)
(-1.09524e-16 1.32272e-16 0)
(7.44813e-17 0 0)
(-8.00493e-17 0 0)
(-2.64909e-17 1.58293e-16 0)
(9.92103e-17 0 0)
(5.66716e-14 4.11995e-17 0)
(1.15043e-09 7.80623e-16 0)
(1.99263e-06 -6.39678e-16 0)
(0.000350417 -6.15574e-15 0)
(0.0095408 1.77726e-15 0)
(0.0669282 -2.33976e-15 0)
(0.204367 6.56434e-16 0)
(0.390027 1.76676e-15 0)
(0.640421 3.00871e-15 0)
(0.886933 4.01851e-15 0)
(0.956128 3.42641e-15 0)
(0.933439 1.74685e-15 0)
(0.850579 1.45148e-15 0)
(0.530527 -6.28325e-16 0)
(0.101862 -8.70165e-16 0)
(0.00230613 1.88288e-16 0)
(4.26034e-06 -4.23269e-15 0)
(4.6321e-10 1.04083e-16 0)
(1.26377e-14 -1.30104e-17 0)
(-1.79598e-16 2.1684e-18 0)
(-4.9861e-17 4.87889e-17 0)
(1.22251e-17 0 0)
(8.20729e-17 3.46943e-17 0)
(-1.31953e-18 2.81892e-17 0)
(-9.72876e-17 4.87889e-17 0)
(-1.01994e-17 0 0)
(5.5266e-21 0 0)
(4.89801e-17 0 0)
(1.85791e-16 4.01153e-17 0)
(2.96014e-17 0 0)
(-5.66333e-17 0 0)
(4.70164e-17 1.40946e-17 0)
(-6.27714e-17 1.27935e-16 0)
(-1.79838e-16 4.22837e-17 0)
(1.05689e-17 5.42099e-18 0)
(2.02146e-16 0 0)
(9.73835e-18 0 0)
(-1.56147e-16 1.57209e-16 0)
(1.69756e-18 0 0)
(1.91195e-16 0 0)
(9.96913e-18 0 0)
(-1.85574e-16 0 0)
(2.04019e-17 3.36101e-17 0)
(2.12736e-16 1.46367e-16 0)
(6.38051e-17 -1.0842e-17 0)
(-1.16788e-16 0 0)
(-9.00456e-18 0 0)
(-1.90516e-18 0 0)
(-5.43572e-17 -4.33679e-18 0)
(-3.01154e-17 -1.06251e-16 0)
(-1.31927e-16 -3.25259e-18 0)
(-2.44214e-17 6.17993e-17 0)
(4.85795e-17 0 0)
(1.99132e-16 0 0)
(1.11812e-17 -5.42099e-18 0)
(-1.51221e-16 1.56125e-16 0)
(-7.07669e-17 4.98731e-17 0)
(-5.35132e-18 0 0)
(0 4.77047e-17 0)
(0 0 0)
(7.00865e-17 0 0)
(3.08514e-16 0 0)
(3.18168e-17 5.42099e-17 0)
(-2.5324e-16 1.27935e-16 0)
(-7.15391e-17 3.07912e-16 0)
(-1.29826e-16 8.67359e-17 0)
(-1.16456e-17 0 0)
(-8.6727e-33 0 0)
(4.58761e-17 0 0)
(2.65205e-16 0 0)
(-7.20021e-18 4.33679e-18 0)
(-3.39049e-16 0 0)
(-3.03688e-18 8.89043e-17 0)
(3.27994e-16 0 0)
(3.43384e-18 4.33679e-17 0)
(-2.56691e-16 0 0)
(-4.21578e-17 0 0)
(-2.38403e-19 6.28835e-17 0)
(-3.47224e-17 0 0)
(4.76405e-19 0 0)
(1.76704e-17 0 0)
(3.73655e-18 6.07151e-17 0)
(9.8307e-17 1.10588e-16 0)
(4.36323e-19 2.94902e-16 0)
(-1.40342e-16 6.93887e-17 0)
(-1.43707e-16 0 0)
(-4.55815e-19 1.51788e-17 0)
(1.20167e-16 0 0)
(1.20704e-17 0 0)
(7.50135e-26 2.38524e-17 0)
(-5.35649e-24 2.23345e-16 0)
(3.81563e-27 9.54094e-17 0)
(2.30813e-19 3.68627e-17 0)
(1.34407e-17 2.19008e-16 0)
(6.27409e-17 1.71303e-16 0)
(-1.21239e-16 3.53449e-16 0)
(3.89859e-17 1.71303e-16 0)
(-1.45044e-16 1.04083e-16 0)
(3.73041e-17 2.88397e-16 0)
(1.21189e-16 8.89043e-17 0)
(5.66826e-14 -2.60208e-17 0)
(1.15043e-09 2.77555e-16 0)
(1.99263e-06 -7.37256e-16 0)
(0.000350417 -2.82192e-15 0)
(0.0095408 2.46368e-15 0)
(0.0669282 1.86561e-15 0)
(0.204367 -4.4193e-16 0)
(0.390027 3.94482e-15 0)
(0.640421 2.90069e-15 0)
(0.886933 1.24068e-15 0)
(0.956128 2.38155e-15 0)
(0.933439 1.32141e-15 0)
(0.850579 1.47875e-15 0)
(0.530527 3.30473e-16 0)
(0.101862 -3.01704e-15 0)
(0.00230613 -1.55392e-15 0)
(4.26034e-06 -1.57642e-15 0)
(4.6321e-10 1.84314e-16 0)
(1.27081e-14 -1.52872e-16 0)
(-1.36152e-16 1.10588e-16 0)
(-4.4954e-17 1.87566e-16 0)
(6.52869e-17 7.80623e-17 0)
(1.69488e-16 1.79977e-16 0)
(-2.03106e-17 1.50704e-16 0)
(-2.15263e-16 1.92987e-16 0)
(-7.12994e-17 4.98731e-17 0)
(7.48827e-19 0 0)
(6.45014e-17 5.09573e-17 0)
(1.65495e-16 1.87566e-16 0)
(2.09336e-17 4.22837e-17 0)
(-9.33851e-17 3.57785e-17 0)
(1.73983e-17 3.14417e-17 0)
(2.09201e-18 -6.83045e-17 0)
(-9.42316e-17 3.90311e-17 0)
(1.52694e-17 1.49619e-16 0)
(1.19442e-16 4.87889e-17 0)
(3.3801e-17 0 0)
(-1.10671e-16 5.63783e-17 0)
(-6.48817e-17 3.90311e-17 0)
(7.24313e-17 2.49366e-17 0)
(5.26892e-17 -4.66205e-17 0)
(-4.87986e-17 5.96309e-17 0)
(5.38915e-17 1.60461e-16 0)
(1.4116e-16 1.84314e-17 0)
(-3.048e-18 -1.27935e-16 0)
(-1.17144e-16 -5.63783e-17 0)
(-1.60203e-17 5.20415e-17 0)
(-1.05402e-17 -4.98731e-17 0)
(-1.13026e-16 5.42099e-17 0)
(-1.04244e-17 -2.1684e-18 0)
(-1.1717e-17 1.20346e-16 0)
(-7.09991e-17 2.04913e-16 0)
(-3.87404e-17 5.96309e-17 0)
(1.30203e-16 1.30104e-17 0)
(1.17087e-16 -1.14925e-16 0)
(-6.42855e-17 5.42099e-18 0)
(-1.50255e-16 1.84314e-16 0)
(-4.91477e-17 8.23991e-17 0)
(-1.95156e-17 1.8323e-16 0)
(-2.1684e-18 -2.1684e-18 0)
(4.28347e-17 -2.1684e-18 0)
(2.04542e-16 -2.1684e-18 0)
(8.62421e-17 3.68627e-17 0)
(-5.41266e-17 2.66713e-16 0)
(-1.18217e-16 2.81892e-17 0)
(-2.64151e-16 -2.1684e-18 0)
(-4.60801e-17 -2.1684e-18 0)
(-2.07125e-28 0 0)
(5.26162e-19 0 0)
(8.34628e-17 -4.33679e-18 0)
(7.99644e-18 -1.73472e-16 0)
(-2.20375e-17 3.25259e-17 0)
(4.98974e-18 3.36101e-16 0)
(1.44217e-16 1.32272e-16 0)
(1.3686e-18 0 0)
(-7.52409e-17 -2.1684e-18 0)
(3.68595e-17 7.15571e-17 0)
(-2.06491e-18 2.9707e-16 0)
(-1.30848e-16 1.06251e-16 0)
(9.18862e-18 0 0)
(1.22577e-16 8.45675e-17 0)
(2.56799e-17 2.90565e-16 0)
(2.07503e-16 1.06251e-16 0)
(-9.47205e-18 3.03576e-17 0)
(-3.18897e-16 -2.1684e-18 0)
(-3.14972e-16 -4.33679e-18 0)
(1.16758e-17 0 0)
(2.64908e-16 -2.1684e-18 0)
(4.45887e-17 0 0)
(2.77453e-25 0 0)
(-7.24621e-23 2.38524e-17 0)
(4.74841e-26 0 0)
(1.09068e-18 -2.1684e-18 0)
(3.76112e-17 1.51788e-17 0)
(2.48929e-16 0 0)
(-8.06154e-19 9.32411e-17 0)
(-1.46408e-16 -2.1684e-18 0)
(-1.45716e-16 0 0)
(5.14053e-26 5.85467e-17 0)
(1.50017e-16 -2.1684e-18 0)
(5.67792e-14 -3.25259e-17 0)
(1.15043e-09 6.65698e-16 0)
(1.99263e-06 3.94649e-16 0)
(0.000350417 9.45702e-16 0)
(0.0095408 2.99489e-16 0)
(0.0669282 1.95057e-15 0)
(0.204367 -8.606e-16 0)
(0.390027 -6.07614e-17 0)
(0.640421 -2.08496e-15 0)
(0.886933 -1.2109e-15 0)
(0.956128 2.37636e-16 0)
(0.933439 2.08805e-15 0)
(0.850579 1.24155e-15 0)
(0.530527 7.16262e-16 0)
(0.101862 -2.62752e-15 0)
(0.00230613 -7.89943e-16 0)
(4.26034e-06 4.71624e-16 0)
(4.63209e-10 -1.69135e-16 0)
(1.31299e-14 4.44521e-17 0)
(-4.58911e-17 8.67359e-18 0)
(-1.08619e-16 8.02307e-17 0)
(1.09148e-17 2.00577e-16 0)
(1.08471e-16 1.30104e-16 0)
(4.17513e-18 2.60208e-17 0)
(-1.14663e-16 1.45283e-16 0)
(-1.02055e-16 1.90819e-16 0)
(5.53389e-18 8.67359e-17 0)
(1.14057e-16 1.90819e-16 0)
(6.83894e-17 1.89735e-16 0)
(-5.47797e-17 6.93887e-17 0)
(-1.49919e-16 1.70219e-16 0)
(-1.8456e-17 1.56125e-16 0)
(8.99678e-18 4.77047e-17 0)
(4.27049e-17 1.71303e-16 0)
(4.75778e-19 2.08166e-16 0)
(9.98365e-18 1.99492e-16 0)
(-9.72078e-18 6.61361e-17 0)
(-1.37941e-16 5.31257e-17 0)
(-1.41673e-17 1.77809e-16 0)
(2.58913e-17 1.89735e-16 0)
(1.40821e-16 7.48097e-17 0)
(1.07604e-16 2.02745e-16 0)
(-5.44792e-17 1.97324e-16 0)
(-9.07698e-17 1.19262e-17 0)
(-9.27063e-19 -8.45675e-17 0)
(5.6335e-17 1.84314e-17 0)
(-3.40897e-17 1.0083e-16 0)
(-2.57609e-17 -3.25259e-18 0)
(8.88875e-18 9.97462e-17 0)
(2.06851e-18 0 0)
(2.43596e-17 6.93887e-17 0)
(-1.26036e-16 1.5504e-16 0)
(-1.56906e-16 2.13587e-16 0)
(-1.54345e-17 1.58293e-16 0)
(-4.32272e-18 2.05998e-17 0)
(9.63701e-17 0 0)
(-1.37507e-17 1.12757e-16 0)
(-8.05281e-17 1.86482e-16 0)
(-1.94071e-16 1.18178e-16 0)
(-2.1684e-18 2.1684e-18 0)
(1.19423e-16 2.1684e-18 0)
(3.84538e-16 2.1684e-18 0)
(1.37039e-16 1.47451e-16 0)
(-2.62441e-16 -1.0842e-17 0)
(-2.95273e-16 -2.92734e-16 0)
(-6.16415e-17 -6.28835e-17 0)
(1.05776e-21 2.1684e-18 0)
(-4.54455e-24 0 0)
(2.09497e-17 -2.1684e-18 0)
(1.80657e-16 -6.50519e-17 0)
(3.53301e-17 1.14925e-16 0)
(2.17567e-16 0 0)
(3.45016e-17 1.30104e-17 0)
(1.37686e-16 -5.85467e-17 0)
(2.71324e-18 9.10727e-17 0)
(-1.6304e-16 2.1684e-18 0)
(2.99294e-17 2.1684e-18 0)
(-1.93235e-17 2.1684e-18 0)
(-2.41547e-16 0 0)
(5.24604e-17 0 0)
(2.26714e-16 2.53702e-16 0)
(-1.02039e-17 3.46943e-17 0)
(-5.1787e-17 -6.50519e-17 0)
(1.74473e-22 -3.12249e-16 0)
(-1.04732e-16 -1.14925e-16 0)
(-1.16944e-16 -9.75778e-17 0)
(6.87541e-17 0 0)
(4.54067e-17 2.1684e-18 0)
(2.19874e-26 0 0)
(-3.01291e-25 0 0)
(-7.10327e-21 0 0)
(1.01984e-22 0 0)
(1.29441e-17 2.1684e-18 0)
(1.24209e-16 0 0)
(6.50532e-17 9.32411e-17 0)
(-1.19812e-16 -9.32411e-17 0)
(-7.54331e-17 2.1684e-18 0)
(-2.57447e-16 0 0)
(3.11418e-24 0 0)
(1.74604e-16 2.1684e-18 0)
(5.68553e-14 -6.93887e-17 0)
(1.15043e-09 2.12503e-15 0)
(1.99263e-06 -6.26668e-16 0)
(0.000350417 4.66778e-15 0)
(0.0095408 -3.75345e-15 0)
(0.0669282 -1.2491e-15 0)
(0.204367 6.34467e-16 0)
(0.390027 -2.41799e-15 0)
(0.640421 -1.52996e-15 0)
(0.886933 -1.97644e-15 0)
(0.956128 -2.74543e-15 0)
(0.933439 -1.01212e-15 0)
(0.850579 -1.83223e-15 0)
(0.530527 -2.52465e-16 0)
(0.101862 1.1225e-15 0)
(0.00230613 -3.46276e-16 0)
(4.26034e-06 2.5858e-15 0)
(4.6321e-10 -4.23922e-16 0)
(1.27143e-14 2.07082e-16 0)
(-1.07535e-16 1.40946e-17 0)
(1.47864e-17 0 0)
(5.23912e-17 7.26413e-17 0)
(-4.93774e-17 -3.03576e-17 0)
(-1.19268e-27 0 0)
(4.59557e-17 -2.92734e-17 0)
(-5.61209e-17 7.48097e-17 0)
(1.50343e-17 1.24683e-16 0)
(1.28402e-16 1.84314e-17 0)
(2.33732e-17 4.22837e-17 0)
(1.01142e-19 -3.57785e-17 0)
(-3.77576e-17 6.83045e-17 0)
(-1.08893e-18 1.6263e-17 0)
(3.45976e-17 1.17093e-16 0)
(-2.87548e-17 1.17093e-16 0)
(4.09508e-18 2.05998e-17 0)
(5.99416e-17 1.2143e-16 0)
(3.80124e-18 2.1684e-17 0)
(-2.69693e-17 7.04729e-17 0)
(1.92938e-17 1.99492e-16 0)
(-2.6236e-19 2.08166e-16 0)
(2.46223e-17 1.8865e-16 0)
(-3.1282e-19 6.93887e-17 0)
(-2.06988e-17 6.07151e-17 0)
(-1.33505e-16 1.20346e-16 0)
(-8.99169e-18 8.45675e-17 0)
(4.19674e-17 1.59377e-16 0)
(-6.21453e-17 5.74625e-17 0)
(-8.66149e-17 1.10588e-16 0)
(-5.27514e-17 -3.79469e-17 0)
(8.81841e-18 -9.10727e-17 0)
(1.47576e-16 -6.93887e-17 0)
(5.23719e-17 -3.14417e-17 0)
(5.07151e-17 1.46367e-16 0)
(9.38838e-18 2.05998e-16 0)
(-2.17922e-17 2.02745e-16 0)
(-5.31345e-17 6.72203e-17 0)
(-5.29988e-17 -1.05167e-16 0)
(-1.45565e-16 -3.25259e-18 0)
(-2.5045e-16 -1.05167e-16 0)
(0 0 0)
(5.34617e-17 0 0)
(2.78087e-16 0 0)
(2.57437e-17 -1.47451e-16 0)
(-3.10145e-16 -3.49112e-16 0)
(-6.32383e-17 -1.06251e-16 0)
(-1.65485e-19 0 0)
(7.67772e-21 0 0)
(-7.44279e-21 0 0)
(9.39281e-17 2.1684e-18 0)
(3.3156e-16 1.27935e-16 0)
(9.32706e-17 2.73218e-16 0)
(-1.53243e-16 1.73472e-17 0)
(3.68972e-17 -2.36355e-16 0)
(2.19108e-16 -6.50519e-17 0)
(3.42619e-18 -9.32411e-17 0)
(-2.82836e-16 0 0)
(-3.36931e-17 -6.28835e-17 0)
(-4.36288e-21 -3.10081e-16 0)
(-5.16715e-17 -9.54094e-17 0)
(1.65673e-16 0 0)
(-1.60148e-18 1.73472e-17 0)
(-2.40367e-16 -2.25513e-16 0)
(-5.15554e-17 -3.68627e-17 0)
(1.22587e-21 -7.37255e-17 0)
(-7.19568e-27 0 0)
(-3.51461e-25 1.01915e-16 0)
(2.12973e-26 0 0)
(6.46047e-22 0 0)
(-7.50223e-26 0 0)
(-2.9385e-21 0 0)
(-1.32532e-18 0 0)
(1.92843e-20 0 0)
(4.832e-17 0 0)
(2.71117e-16 0 0)
(-5.25557e-19 -3.25259e-17 0)
(-2.52152e-16 0 0)
(-5.78933e-17 0 0)
(-4.22354e-17 0 0)
(7.52017e-21 0 0)
(5.08968e-17 0 0)
(5.63784e-14 -2.23345e-16 0)
(1.15043e-09 1.0495e-15 0)
(1.99263e-06 -2.3809e-15 0)
(0.000350417 6.67197e-15 0)
(0.0095408 -4.05293e-15 0)
(0.0669282 -1.17447e-15 0)
(0.204367 1.81036e-15 0)
(0.390027 -1.06255e-15 0)
(0.640421 -2.07658e-16 0)
(0.886933 -1.54772e-15 0)
(0.956128 -3.15424e-15 0)
(0.933439 -3.16355e-15 0)
(0.850579 -2.82886e-15 0)
(0.530527 -2.34026e-17 0)
(0.101862 1.00234e-15 0)
(0.00230613 -1.85258e-15 0)
(4.26034e-06 2.50449e-15 0)
(4.63211e-10 -1.05926e-15 0)
(1.28393e-14 2.81892e-17 0)
(-3.97502e-17 0 0)
(2.94068e-17 0 0)
(-7.24197e-17 -9.75778e-18 0)
(-2.12853e-18 -1.11672e-16 0)
(6.76421e-26 -7.58939e-18 0)
(2.3568e-18 -1.11672e-16 0)
(3.6609e-17 -9.75778e-18 0)
(-6.57307e-17 -9.75778e-18 0)
(3.69227e-17 -1.12757e-16 0)
(8.93371e-17 -1.0842e-17 0)
(1.36287e-18 0 0)
(-8.65613e-17 -8.67359e-18 0)
(-9.55678e-18 -1.09504e-16 0)
(5.14823e-17 -6.50519e-18 0)
(-5.16106e-17 -3.14417e-17 0)
(3.04049e-17 -1.34441e-16 0)
(1.31947e-16 -3.14417e-17 0)
(2.34826e-17 0 0)
(6.3744e-19 -5.09573e-17 0)
(5.5375e-17 5.09573e-17 0)
(-1.43913e-18 6.17993e-17 0)
(3.51521e-22 5.20415e-17 0)
(-5.08859e-18 0 0)
(-6.19192e-17 0 0)
(-1.96507e-17 6.50519e-18 0)
(7.44897e-17 1.27935e-16 0)
(3.4142e-19 3.46943e-17 0)
(-6.64032e-17 0 0)
(-2.04049e-16 5.20415e-17 0)
(-1.47974e-16 -5.09573e-17 0)
(-4.68261e-17 1.19262e-17 0)
(4.57069e-17 -1.46367e-16 0)
(2.09467e-16 -1.73472e-16 0)
(2.33448e-16 -3.03576e-17 0)
(4.16171e-17 6.39677e-17 0)
(-6.92214e-17 4.98731e-17 0)
(-1.95529e-16 -6.83045e-17 0)
(-1.46435e-16 -2.0925e-16 0)
(-4.2397e-17 -1.72388e-16 0)
(-1.0083e-16 -2.08166e-16 0)
(0 0 0)
(2.49623e-19 0 0)
(2.79421e-17 -8.67359e-17 0)
(-1.50436e-17 -3.31765e-16 0)
(-6.60002e-17 -1.06251e-16 0)
(-6.73892e-20 0 0)
(5.93432e-19 0 0)
(7.76181e-19 0 0)
(-1.13269e-18 0 0)
(1.02674e-16 0 0)
(3.59724e-16 0 0)
(-1.59754e-18 5.42099e-17 0)
(-3.64677e-16 0 0)
(-9.78172e-17 -4.98731e-17 0)
(3.93287e-17 0 0)
(7.82501e-18 -9.32411e-17 0)
(-9.91492e-17 0 0)
(-7.60794e-19 0 0)
(-4.43725e-20 -7.37255e-17 0)
(-7.48781e-20 0 0)
(2.26954e-17 0 0)
(-1.71515e-18 -9.32411e-17 0)
(-6.02072e-17 -4.55363e-17 0)
(-5.66406e-20 0 0)
(1.9892e-20 0 0)
(-5.56942e-23 0 0)
(-3.63309e-24 0 0)
(1.73294e-22 0 0)
(-3.50613e-21 0 0)
(-7.75743e-23 0 0)
(-5.17199e-19 0 0)
(-3.07371e-17 0 0)
(4.51271e-19 -5.85467e-17 0)
(3.56443e-17 0 0)
(6.33412e-17 -7.15571e-17 0)
(-2.68354e-18 -2.99239e-16 0)
(-4.86115e-17 -7.15571e-17 0)
(-2.74385e-20 0 0)
(-6.14888e-19 0 0)
(1.56504e-18 0 0)
(-2.57309e-17 0 0)
(5.61383e-14 -1.60461e-16 0)
(1.15043e-09 -5.20415e-16 0)
(1.99263e-06 -6.85214e-16 0)
(0.000350417 3.17114e-15 0)
(0.0095408 -5.46512e-17 0)
(0.0669282 7.80685e-16 0)
(0.204367 9.40716e-16 0)
(0.390027 -7.29137e-16 0)
(0.640421 -1.02246e-15 0)
(0.886933 6.56037e-16 0)
(0.956128 7.54865e-16 0)
(0.933439 -5.04143e-16 0)
(0.850579 2.36682e-16 0)
(0.530527 1.62045e-15 0)
(0.101862 -5.42727e-16 0)
(0.00230613 -1.93698e-16 0)
(4.26034e-06 1.02782e-15 0)
(4.63212e-10 -4.44521e-17 0)
(1.27429e-14 -3.25259e-18 0)
(-5.977e-17 0 0)
(4.15774e-17 0 0)
(-5.98184e-17 0 0)
(-8.21931e-18 -9.75778e-18 0)
(-7.98469e-24 -2.60208e-17 0)
(9.29073e-18 -9.75778e-18 0)
(5.44641e-18 0 0)
(-8.79669e-17 -5.20415e-17 0)
(8.6224e-17 -1.0842e-17 0)
(1.99622e-16 0 0)
(7.03362e-18 5.52941e-17 0)
(-1.83733e-16 0 0)
(-2.6673e-17 -8.67359e-18 0)
(5.92296e-17 -3.03576e-17 0)
(-4.45793e-17 0 0)
(4.54821e-18 -2.1684e-17 0)
(1.07982e-16 0 0)
(-2.21289e-17 0 0)
(1.14584e-17 0 0)
(1.39628e-16 0 0)
(2.09159e-17 0 0)
(-1.60072e-20 0 0)
(-2.20422e-17 0 0)
(-1.42633e-16 0 0)
(1.2164e-18 0 0)
(1.57094e-16 1.51788e-17 0)
(8.67934e-18 0 0)
(-5.99507e-17 0 0)
(-2.10163e-16 0 0)
(-8.85557e-17 0 0)
(-2.53442e-17 -7.58939e-18 0)
(-3.21177e-17 -4.55363e-17 0)
(1.30397e-16 -6.61361e-17 0)
(2.34618e-16 0 0)
(2.79203e-17 0 0)
(-1.85655e-16 0 0)
(-2.4244e-16 2.38524e-17 0)
(-9.49085e-17 -6.07151e-17 0)
(5.83803e-18 -3.79469e-17 0)
(0 -6.17993e-17 0)
(0 6.50519e-17 0)
(4.80288e-18 0 0)
(-2.38101e-18 0 0)
(-2.9446e-17 -1.2143e-16 0)
(-2.87251e-18 0 0)
(2.60492e-19 0 0)
(1.9554e-17 0 0)
(1.25111e-17 4.33679e-17 0)
(-2.45449e-17 0 0)
(1.02408e-16 -2.1684e-18 0)
(3.68867e-16 0 0)
(8.80173e-19 0 0)
(-3.66562e-16 0 0)
(-7.46637e-17 -2.60208e-17 0)
(1.08765e-16 0 0)
(1.27932e-17 9.32411e-17 0)
(-1.25953e-16 2.60208e-17 0)
(-2.03369e-17 0 0)
(-1.1595e-18 0 0)
(2.50677e-19 0 0)
(9.71601e-17 0 0)
(-1.95746e-18 9.32411e-17 0)
(-1.04116e-16 0 0)
(-2.47326e-18 0 0)
(1.86481e-19 0 0)
(-4.13562e-20 0 0)
(-5.49076e-21 0 0)
(6.8504e-20 0 0)
(-6.33825e-19 0 0)
(-1.63644e-20 0 0)
(-1.0416e-17 0 0)
(-1.2749e-16 -9.32411e-17 0)
(2.21011e-18 -2.88397e-16 0)
(1.37005e-16 -9.97462e-17 0)
(8.78158e-18 0 0)
(-9.7075e-18 -6.50519e-17 0)
(5.20685e-18 0 0)
(-2.36324e-18 0 0)
(3.12362e-18 0 0)
(3.82909e-17 0 0)
(-8.90784e-17 1.01915e-16 0)
(5.63092e-14 -5.42099e-17 0)
(1.15043e-09 2.38524e-17 0)
(1.99263e-06 3.23092e-16 0)
(0.000350417 -1.69185e-15 0)
(0.0095408 2.25163e-16 0)
(0.0669282 2.53952e-15 0)
(0.204367 -6.87447e-16 0)
(0.390027 1.08124e-15 0)
(0.640421 1.28413e-15 0)
(0.886933 1.16543e-15 0)
(0.956128 1.6033e-15 0)
(0.933439 4.69257e-16 0)
(0.850579 6.78659e-16 0)
(0.530527 1.15311e-15 0)
(0.101862 -1.00434e-15 0)
(0.00230613 2.60789e-16 0)
(4.26034e-06 -5.43181e-16 0)
(4.63211e-10 -1.30104e-16 0)
(1.2838e-14 0 0)
(-3.86366e-17 -3.25259e-17 0)
(-1.76673e-17 0 0)
(-1.20882e-16 -4.87889e-17 0)
(-5.51518e-17 -3.14417e-17 0)
(-1.5337e-22 -1.40946e-16 0)
(5.6483e-17 -3.03576e-17 0)
(2.87864e-17 0 0)
(-9.93201e-17 5.20415e-17 0)
(6.92099e-17 0 0)
(1.76653e-16 -3.79469e-17 0)
(-1.91611e-22 -5.52941e-17 0)
(-1.7312e-16 -4.11995e-17 0)
(-2.56588e-17 -1.40946e-17 0)
(7.00227e-17 -1.52872e-16 0)
(-3.31769e-17 -5.09573e-17 0)
(4.19714e-17 0 0)
(1.78226e-16 -5.42099e-17 0)
(3.66862e-17 -1.73472e-17 0)
(-1.17514e-18 1.05167e-16 0)
(-5.85307e-18 1.0842e-18 0)
(3.20968e-20 -6.17993e-17 0)
(3.72493e-19 -4.44521e-17 0)
(2.1553e-17 -3.68627e-17 0)
(-1.39879e-17 0 0)
(4.56618e-18 5.20415e-17 0)
(5.47563e-17 0 0)
(3.96177e-19 0 0)
(-5.93327e-17 0 0)
(-2.04497e-16 0 0)
(-1.97502e-16 -2.1684e-18 0)
(-8.62831e-17 -1.13841e-16 0)
(3.28993e-17 -1.0842e-18 0)
(2.06263e-16 0 0)
(2.03138e-16 0 0)
(5.01522e-17 -4.87889e-17 0)
(-4.92672e-17 2.05998e-17 0)
(-2.07003e-16 1.76724e-16 0)
(-2.0391e-16 5.31257e-17 0)
(-4.8326e-17 3.03576e-17 0)
(-3.25259e-18 3.25259e-17 0)
(1.38777e-16 2.79723e-16 0)
(1.86545e-17 9.32411e-17 0)
(-1.64463e-17 9.97462e-17 0)
(-1.37113e-16 -9.75778e-17 0)
(-2.4088e-17 2.1684e-18 0)
(1.19947e-17 0 0)
(1.33971e-16 7.58939e-17 0)
(2.5982e-17 2.60208e-16 0)
(-1.22948e-16 8.02307e-17 0)
(1.32355e-16 7.58939e-17 0)
(2.30883e-16 1.14925e-16 0)
(4.75854e-18 -1.14925e-16 0)
(-1.97599e-16 -2.38524e-17 0)
(-4.30159e-18 -2.05998e-16 0)
(1.88057e-16 -1.51788e-17 0)
(3.48302e-17 -1.0842e-17 0)
(-2.05645e-16 2.36355e-16 0)
(-1.47185e-16 1.95156e-17 0)
(-2.2508e-17 0 0)
(8.68056e-18 0 0)
(2.11184e-16 0 0)
(-2.43378e-18 -4.33679e-18 0)
(-2.10551e-16 0 0)
(-1.49412e-17 0 0)
(6.55655e-19 0 0)
(-3.71024e-18 0 0)
(-9.00677e-19 0 0)
(1.95292e-18 0 0)
(-1.72727e-17 0 0)
(-8.38236e-19 0 0)
(-3.84123e-17 0 0)
(-2.51977e-16 0 0)
(1.43051e-17 0 0)
(2.80305e-16 0 0)
(3.41458e-17 0 0)
(-5.40591e-17 0 0)
(6.35096e-17 0 0)
(-2.67225e-17 0 0)
(4.57241e-17 -6.50519e-18 0)
(1.50619e-16 1.04083e-16 0)
(3.66622e-17 3.23091e-16 0)
(5.59116e-14 7.80623e-17 0)
(1.15043e-09 6.63529e-16 0)
(1.99263e-06 8.02308e-16 0)
(0.000350417 -6.98214e-15 0)
(0.0095408 1.55209e-16 0)
(0.0669282 2.94594e-15 0)
(0.204367 -1.65659e-15 0)
(0.390027 1.70911e-15 0)
(0.640421 3.27876e-15 0)
(0.886933 1.28518e-15 0)
(0.956128 1.46591e-15 0)
(0.933439 8.62787e-16 0)
(0.850579 9.84288e-16 0)
(0.530527 -7.55267e-16 0)
(0.101862 -4.9316e-15 0)
(0.00230613 1.3191e-15 0)
(4.26034e-06 -1.37476e-15 0)
(4.63212e-10 -4.42353e-16 0)
(1.27207e-14 -3.46943e-17 0)
(-5.51837e-17 -1.56125e-16 0)
(4.60395e-17 -5.52941e-17 0)
(-4.88858e-17 -1.5504e-16 0)
(-1.43776e-16 -5.31257e-17 0)
(-2.14962e-21 -4.11995e-17 0)
(1.42463e-16 0 0)
(8.30933e-17 -5.74625e-17 0)
(-1.93371e-17 4.77047e-17 0)
(-3.59434e-17 -2.81892e-17 0)
(5.01244e-17 -1.63714e-16 0)
(-1.16626e-19 -6.28835e-17 0)
(-5.06643e-17 -1.65882e-16 0)
(-3.99942e-17 -4.01153e-17 0)
(8.56217e-17 -2.1684e-17 0)
(-1.72001e-17 0 0)
(-4.04709e-18 -4.55363e-17 0)
(1.21272e-16 -1.70219e-16 0)
(9.56696e-17 -1.46367e-16 0)
(-2.44273e-18 -2.27682e-17 0)
(-6.82015e-17 -1.44198e-16 0)
(-1.71356e-18 -2.08166e-16 0)
(2.89347e-18 -1.79977e-16 0)
(6.24787e-17 -1.72388e-16 0)
(1.91659e-17 -6.17993e-17 0)
(1.28903e-17 -5.20415e-17 0)
(5.53199e-17 0 0)
(-2.87387e-18 0 0)
(-1.6047e-17 -4.01153e-17 0)
(-1.73679e-16 0 0)
(-2.28026e-16 1.24683e-16 0)
(-7.63379e-17 2.27682e-17 0)
(1.77161e-17 0 0)
(1.62607e-16 8.45675e-17 0)
(1.53745e-16 -8.45675e-17 0)
(3.70813e-17 -1.85398e-16 0)
(3.19077e-17 -3.57785e-17 0)
(-1.51407e-16 2.60208e-17 0)
(-1.59798e-16 1.77809e-16 0)
(-5.816e-17 1.81061e-16 0)
(-1.40946e-16 1.70219e-16 0)
(3.23091e-16 1.01915e-16 0)
(5.70403e-17 8.67359e-17 0)
(-5.78924e-17 0 0)
(-2.89498e-16 8.23991e-17 0)
(-5.36813e-17 -4.98731e-17 0)
(1.02677e-16 7.15571e-17 0)
(3.27611e-16 1.34441e-16 0)
(3.63228e-17 8.02307e-17 0)
(-2.99059e-16 1.32272e-16 0)
(2.50933e-16 3.14417e-16 0)
(-4.59324e-17 1.73472e-17 0)
(-2.10313e-16 -1.92987e-16 0)
(-9.45721e-17 -2.1684e-18 0)
(-1.04569e-16 8.67359e-18 0)
(1.62363e-16 -2.1684e-18 0)
(2.68981e-16 -2.45029e-16 0)
(-1.79704e-17 4.11995e-17 0)
(-3.23944e-16 1.38777e-16 0)
(-8.18158e-17 -2.1684e-18 0)
(6.4142e-17 7.80623e-17 0)
(-1.01338e-16 -6.50519e-18 0)
(-4.95367e-17 -2.32018e-16 0)
(7.26698e-17 -1.95156e-17 0)
(1.24487e-16 7.15571e-17 0)
(2.40112e-18 1.14925e-16 0)
(-5.71215e-17 2.38524e-17 0)
(-2.40316e-17 0 0)
(7.06947e-18 0 0)
(-1.08822e-16 2.60208e-17 0)
(-1.22929e-17 -4.33679e-18 0)
(8.93522e-17 0 0)
(-4.81608e-17 1.19262e-16 0)
(6.00204e-17 3.3827e-16 0)
(1.90747e-17 8.45675e-17 0)
(-7.95655e-17 0 0)
(-6.92772e-17 -1.04083e-16 0)
(1.17071e-16 0 0)
(-6.61902e-17 -8.67359e-18 0)
(9.47236e-17 -1.92987e-16 0)
(2.62093e-16 -1.0842e-17 0)
(1.70877e-16 4.33679e-18 0)
(5.5748e-14 2.1684e-18 0)
(1.15043e-09 3.90311e-17 0)
(1.99263e-06 4.7488e-16 0)
(0.000350417 -6.77391e-15 0)
(0.0095408 4.08572e-15 0)
(0.0669282 -7.20986e-16 0)
(0.204367 2.68776e-16 0)
(0.390027 -3.14713e-16 0)
(0.640421 -8.84641e-17 0)
(0.886933 1.20001e-15 0)
(0.956128 1.42841e-15 0)
(0.933439 1.81236e-15 0)
(0.850579 1.71388e-15 0)
(0.530527 4.68052e-16 0)
(0.101862 -3.67492e-15 0)
(0.00230613 2.84596e-15 0)
(4.26034e-06 -2.10659e-15 0)
(4.63212e-10 -7.26413e-17 0)
(1.27186e-14 1.2037e-34 0)
(-2.8889e-17 8.67359e-18 0)
(-3.58586e-17 0 0)
(-1.28348e-16 -8.78201e-17 0)
(-2.67316e-17 0 0)
(-2.34689e-19 -5.31257e-17 0)
(2.27426e-17 -4.11995e-17 0)
(1.30662e-16 -1.48535e-16 0)
(5.07145e-17 -9.75778e-17 0)
(-7.83141e-17 5.20415e-17 0)
(2.50494e-17 -4.87889e-17 0)
(-1.09373e-18 0 0)
(-3.86442e-17 -9.75778e-17 0)
(6.53878e-17 0 0)
(3.42829e-17 2.60208e-17 0)
(-7.29074e-17 -8.02307e-17 0)
(-1.19968e-16 2.27682e-17 0)
(3.55931e-17 -7.69781e-17 0)
(1.69509e-16 -4.55363e-17 0)
(-7.28966e-19 0 0)
(-1.54163e-16 -1.34441e-16 0)
(-1.84092e-17 -9.64936e-17 0)
(1.67416e-17 -4.55363e-17 0)
(1.35078e-16 -7.48097e-17 0)
(5.67661e-17 -1.76724e-16 0)
(6.52081e-17 -4.11995e-17 0)
(1.04517e-16 0 0)
(-1.90772e-17 -5.20415e-17 0)
(5.23397e-18 -1.73472e-16 0)
(1.08123e-17 0 0)
(-1.58102e-16 1.48535e-16 0)
(-1.35711e-16 1.92987e-16 0)
(5.16819e-18 5.42099e-17 0)
(5.76179e-17 0 0)
(1.38245e-17 -8.13149e-17 0)
(1.22254e-16 -1.51788e-16 0)
(1.49671e-16 -5.09573e-17 0)
(-3.15243e-19 -4.77047e-17 0)
(-6.75886e-17 6.17993e-17 0)
(-1.10342e-16 5.85467e-17 0)
(-2.46113e-16 6.72203e-17 0)
(2.40692e-16 6.93887e-17 0)
(4.75151e-17 2.7105e-16 0)
(-1.50603e-16 1.06251e-16 0)
(-1.09455e-16 2.90565e-16 0)
(3.2528e-17 1.38777e-16 0)
(2.16816e-16 3.16586e-16 0)
(1.43824e-16 3.16586e-16 0)
(-4.22733e-18 1.04083e-16 0)
(-1.14381e-16 1.97324e-16 0)
(-7.5274e-17 4.33679e-18 0)
(-1.98698e-16 -2.47197e-16 0)
(9.58854e-18 -3.68627e-17 0)
(-1.60594e-16 1.82145e-16 0)
(-4.49774e-17 3.10081e-16 0)
(1.71041e-16 9.54094e-17 0)
(8.76863e-17 -6.28835e-17 0)
(4.38192e-17 7.37255e-17 0)
(-2.05082e-16 3.20923e-16 0)
(-2.12289e-17 1.40946e-16 0)
(1.08206e-16 3.23091e-16 0)
(-1.15845e-16 1.92987e-16 0)
(-1.05566e-16 6.28835e-17 0)
(8.82595e-17 7.80623e-17 0)
(2.94339e-16 3.33933e-16 0)
(1.54816e-17 3.77301e-16 0)
(-1.59909e-16 2.27682e-16 0)
(-1.5086e-16 2.81892e-17 0)
(2.57456e-18 6.50519e-17 0)
(-1.80087e-16 2.45029e-16 0)
(-8.28845e-17 4.33679e-18 0)
(1.74822e-16 0 0)
(5.50839e-17 0 0)
(1.56873e-16 1.14925e-16 0)
(-3.48832e-17 3.03576e-16 0)
(-2.22374e-16 1.19262e-16 0)
(1.84774e-18 1.01915e-16 0)
(9.30802e-17 2.1684e-18 0)
(-9.48079e-17 1.84314e-16 0)
(-5.25854e-17 -4.33679e-17 0)
(2.07961e-16 -1.34441e-16 0)
(4.28502e-17 -3.14417e-16 0)
(5.594e-14 -1.25767e-16 0)
(1.15043e-09 -8.73864e-16 0)
(1.99263e-06 -8.6736e-16 0)
(0.000350417 -1.29275e-15 0)
(0.0095408 1.78163e-15 0)
(0.0669282 -4.17207e-15 0)
(0.204367 1.60103e-15 0)
(0.390027 2.72647e-16 0)
(0.640421 2.05795e-16 0)
(0.886933 9.96062e-16 0)
(0.956128 3.26378e-16 0)
(0.933439 -1.20824e-16 0)
(0.850579 -8.73665e-16 0)
(0.530527 -6.8364e-16 0)
(0.101862 -4.5561e-16 0)
(0.00230613 -4.78294e-16 0)
(4.26034e-06 -1.14274e-15 0)
(4.63212e-10 5.009e-16 0)
(1.27264e-14 1.0842e-18 0)
(-1.35101e-16 1.77809e-16 0)
(-4.01152e-17 7.48097e-17 0)
(-7.18247e-17 8.78201e-17 0)
(-8.07381e-17 -1.30104e-17 0)
(-2.1265e-18 -1.63714e-16 0)
(5.94396e-17 -4.01153e-17 0)
(3.17545e-17 1.19262e-17 0)
(1.33975e-16 -9.21569e-17 0)
(2.29911e-17 0 0)
(-1.18528e-16 1.02999e-16 0)
(-1.63077e-17 1.0842e-18 0)
(-1.10337e-17 9.75778e-17 0)
(9.1339e-17 0 0)
(2.15646e-17 -7.69781e-17 0)
(-9.15428e-17 2.05998e-17 0)
(-1.73235e-17 1.25767e-16 0)
(1.0733e-16 7.69781e-17 0)
(7.57785e-17 0 0)
(-6.84393e-17 -8.56517e-17 0)
(-7.47319e-17 4.33679e-17 0)
(5.67527e-17 9.64936e-17 0)
(-2.46997e-32 0 0)
(-3.7895e-18 6.61361e-17 0)
(1.06605e-16 -4.22837e-17 0)
(1.66252e-16 0 0)
(1.37421e-17 0 0)
(-1.47116e-16 -1.20346e-16 0)
(1.08069e-17 -4.33679e-18 0)
(1.4152e-16 0 0)
(-1.148e-17 -2.49366e-17 0)
(-1.57038e-16 1.22514e-16 0)
(-9.36432e-17 0 0)
(5.20269e-17 0 0)
(2.84917e-17 8.13149e-17 0)
(1.31148e-16 5.42099e-17 0)
(8.65108e-17 -1.05167e-16 0)
(-9.12009e-17 -1.49619e-16 0)
(-1.45772e-16 -2.49366e-17 0)
(-4.57339e-17 0 0)
(-1.47451e-16 0 0)
(4.27174e-16 -1.19262e-16 0)
(6.78745e-17 -4.11995e-17 0)
(-2.91927e-16 -7.80623e-17 0)
(-1.66183e-16 8.89043e-17 0)
(1.59189e-16 2.1684e-18 0)
(2.88599e-16 5.85467e-17 0)
(3.90985e-17 -1.30104e-17 0)
(-3.87522e-17 -8.23991e-17 0)
(-2.85813e-16 -8.23991e-17 0)
(-2.93826e-16 -2.77555e-16 0)
(-6.55256e-18 -4.98731e-17 0)
(2.28048e-16 2.68881e-16 0)
(-1.11372e-17 4.11995e-17 0)
(-2.28283e-16 1.23599e-16 0)
(-3.03962e-17 -4.33679e-18 0)
(2.7214e-16 2.1684e-18 0)
(1.36625e-16 -6.28835e-17 0)
(-1.23749e-16 0 0)
(5.07856e-24 2.1684e-18 0)
(8.42231e-17 4.33679e-18 0)
(-1.26439e-16 -3.68627e-17 0)
(-1.66543e-16 4.33679e-18 0)
(1.37442e-16 2.1684e-18 0)
(3.39278e-16 5.63783e-17 0)
(-3.41132e-18 6.50519e-18 0)
(-3.57327e-16 -2.1684e-18 0)
(-3.06066e-16 0 0)
(1.87625e-16 0 0)
(-1.41437e-17 -2.1684e-18 0)
(-3.13901e-16 -7.37255e-17 0)
(-1.0134e-17 0 0)
(1.50699e-16 0 0)
(4.33207e-16 0 0)
(5.95177e-17 0 0)
(-3.09581e-16 0 0)
(-1.04716e-17 1.23599e-16 0)
(2.76543e-16 0 0)
(-6.40247e-18 0 0)
(-2.29468e-16 2.7105e-16 0)
(8.45007e-18 4.77047e-17 0)
(1.70732e-17 -8.45675e-17 0)
(5.6329e-14 1.79977e-16 0)
(1.15043e-09 -1.3314e-15 0)
(1.99263e-06 -1.25767e-16 0)
(0.000350417 2.7677e-15 0)
(0.0095408 -2.34782e-15 0)
(0.0669282 -2.47638e-15 0)
(0.204367 3.63106e-16 0)
(0.390027 -1.27755e-16 0)
(0.640421 2.88672e-17 0)
(0.886933 2.00749e-16 0)
(0.956128 5.90376e-17 0)