/*--------------------------------*- C++ -*----------------------------------*\
| =========                 |                                                 |
| \\      /  F ield         | OpenFOAM: The Open Source CFD Toolbox           |
|  \\    /   O peration     | Version:  4.1                                   |
|   \\  /    A nd           | Web:      www.OpenFOAM.org                      |
|    \\/     M anipulation  |                                                 |
\*---------------------------------------------------------------------------*/
FoamFile
{
    version     2.0;
    format      ascii;
    class       volVectorField;
    location    "0.13";
    object      U;
}
// * * * * * * * * * * * * * * * * * * * * * * * * * * * * * * * * * * * * * //

dimensions      [0 1 -1 0 0 0 0];

internalField   nonuniform List<vector> 
10000
(
(0 0 0)
(5.5971e-17 0 0)
(1.88421e-16 0 0)
(4.06002e-17 1.12757e-16 0)
(-8.83048e-17 0 0)
(-5.93484e-17 0 0)
(-1.01744e-16 0 0)
(-6.20352e-18 0 0)
(4.1823e-32 0 0)
(9.26362e-17 1.12757e-16 0)
(2.95535e-16 0 0)
(-4.40422e-18 -1.49619e-16 0)
(-3.05401e-16 0 0)
(-1.55137e-17 0 0)
(1.68328e-16 0 0)
(-2.1494e-18 1.23599e-16 0)
(-1.74571e-16 0 0)
(-2.87728e-17 0 0)
(-4.93851e-19 0 0)
(-1.66895e-17 0 0)
(2.03311e-20 0 0)
(7.27186e-18 9.32411e-17 0)
(3.6217e-18 0 0)
(6.4233e-17 0 0)
(-7.70094e-18 0 0)
(-1.03029e-16 0 0)
(-2.97173e-16 -1.17093e-16 0)
(-1.67114e-17 8.45675e-17 0)
(2.75916e-16 0 0)
(2.65183e-17 1.34441e-16 0)
(-1.64362e-16 0 0)
(-9.3462e-21 -1.04083e-16 0)
(8.33296e-17 -2.1684e-18 0)
(-9.96258e-17 0 0)
(-3.83215e-17 1.04083e-16 0)
(-5.62761e-17 3.9248e-16 0)
(8.3047e-13 1.17093e-16 0)
(5.76871e-09 -1.82145e-16 0)
(3.81923e-06 -1.43982e-15 0)
(0.000338583 9.08385e-15 0)
(0.00603229 -4.44622e-16 0)
(0.0341855 1.22774e-14 0)
(0.0953365 4.78703e-15 0)
(0.18008 3.19764e-15 0)
(0.276704 1.2591e-15 0)
(0.379372 -9.16355e-15 0)
(0.485781 -6.34302e-15 0)
(0.595792 6.11831e-15 0)
(0.708236 5.83407e-15 0)
(0.823657 -5.65878e-15 0)
(0.913414 2.17984e-15 0)
(0.948713 4.14183e-15 0)
(0.923006 4.86162e-15 0)
(0.925119 5.95531e-15 0)
(0.928526 3.56188e-15 0)
(0.931915 2.52214e-15 0)
(0.931486 1.53053e-15 0)
(0.941021 1.22133e-15 0)
(0.957849 -4.30588e-16 0)
(0.942767 -2.49362e-16 0)
(0.852635 -3.85444e-16 0)
(0.517 1.31919e-15 0)
(0.0815587 -5.94858e-16 0)
(0.00123965 5.8699e-16 0)
(1.30906e-06 -2.82542e-15 0)
(7.03342e-11 -1.47451e-16 0)
(1.73953e-15 0 0)
(1.49792e-18 0 0)
(1.1765e-16 0 0)
(2.85484e-16 0 0)
(8.04653e-17 0 0)
(-1.25095e-16 0 0)
(7.93072e-18 1.45283e-16 0)
(-6.31866e-17 4.03322e-16 0)
(-1.7563e-16 1.7564e-16 0)
(4.18003e-17 0 0)
(2.483e-16 0 0)
(4.85234e-17 0 0)
(-1.4169e-16 9.54094e-17 0)
(4.83742e-17 0 0)
(2.47396e-16 0 0)
(4.38073e-17 0 0)
(-1.60244e-16 0 0)
(4.28808e-17 0 0)
(2.38482e-16 7.69781e-17 0)
(7.10931e-17 0 0)
(-1.2825e-16 0 0)
(-2.02951e-17 0 0)
(-1.40564e-17 0 0)
(-7.45876e-17 0 0)
(-1.48798e-16 -6.50519e-18 0)
(-3.01175e-16 0 0)
(-1.08326e-16 0 0)
(5.97212e-17 0 0)
(2.46059e-16 0 0)
(4.38858e-17 0 0)
(-1.50068e-16 8.45675e-17 0)
(-1.02258e-16 0 0)
(-2.37283e-17 0 0)
(0 0 0)
(0 0 0)
(1.15427e-16 0 0)
(2.39634e-16 1.14925e-16 0)
(5.596e-17 2.92734e-16 0)
(-1.2861e-16 1.14925e-16 0)
(-1.70515e-16 2.2985e-16 0)
(-2.1444e-16 4.77047e-17 0)
(-2.62479e-17 0 0)
(-2.52915e-28 0 0)
(1.04106e-16 0 0)
(3.42479e-16 0 0)
(2.67133e-17 0 0)
(-2.82258e-16 0 0)
(6.43785e-18 0 0)
(1.73023e-16 1.23599e-16 0)
(-1.48464e-17 3.07912e-16 0)
(-2.0133e-16 1.23599e-16 0)
(-6.85336e-17 0 0)
(-5.57278e-18 0 0)
(-7.52941e-17 0 0)
(2.4333e-19 0 0)
(2.16716e-17 2.1684e-18 0)
(1.44455e-17 0 0)
(1.36578e-16 4.98731e-17 0)
(-3.96283e-17 1.99492e-16 0)
(-2.33052e-16 8.67359e-18 0)
(-2.04021e-16 6.72203e-17 0)
(-4.3988e-18 2.68881e-16 0)
(1.71232e-16 8.67359e-17 0)
(2.80964e-17 0 0)
(-1.79923e-16 0 0)
(-8.22377e-20 5.63783e-17 0)
(1.79923e-16 -2.81892e-17 0)
(7.4074e-18 0 0)
(-3.33887e-17 2.36355e-16 0)
(1.27586e-16 5.76793e-16 0)
(8.30254e-13 4.77047e-16 0)
(5.76871e-09 4.77047e-17 0)
(3.81923e-06 -3.32199e-15 0)
(0.000338583 1.78293e-14 0)
(0.00603229 -3.00643e-14 0)
(0.0341855 2.56868e-14 0)
(0.0953365 3.52939e-16 0)
(0.18008 -9.30165e-15 0)
(0.276704 5.73144e-15 0)
(0.379372 -2.80757e-15 0)
(0.485781 -1.68114e-15 0)
(0.595792 -1.58654e-16 0)
(0.708236 4.38095e-15 0)
(0.823657 -3.83123e-16 0)
(0.913414 4.61035e-15 0)
(0.948713 3.96124e-15 0)
(0.923006 3.29172e-15 0)
(0.925119 5.31911e-15 0)
(0.928526 3.26307e-15 0)
(0.931915 2.87978e-15 0)
(0.931486 1.2466e-15 0)
(0.941021 -8.2087e-16 0)
(0.957849 -4.81884e-16 0)
(0.942767 -1.08849e-15 0)
(0.852635 -5.21967e-16 0)
(0.517 3.27356e-15 0)
(0.0815587 -8.46177e-16 0)
(0.00123965 1.39275e-15 0)
(1.30906e-06 -1.38777e-16 0)
(7.03345e-11 6.72203e-17 0)
(1.73092e-15 1.73472e-17 0)
(4.59575e-18 0 0)
(1.36645e-16 0 0)
(2.94645e-16 1.18178e-16 0)
(1.10517e-16 7.58939e-18 0)
(-8.48697e-17 8.67359e-18 0)
(1.78159e-17 1.09504e-16 0)
(-8.30921e-17 2.12503e-16 0)
(-1.85553e-16 1.10588e-16 0)
(1.74917e-17 9.21569e-17 0)
(2.13788e-16 0 0)
(1.239e-17 2.81892e-17 0)
(-1.57078e-16 1.98408e-16 0)
(1.33602e-17 2.81892e-17 0)
(2.15052e-16 0 0)
(2.90081e-17 0 0)
(-1.67389e-16 0 0)
(3.2797e-17 1.04083e-16 0)
(2.40585e-16 1.78893e-16 0)
(7.00332e-17 7.58939e-18 0)
(-1.49593e-16 0 0)
(-4.52526e-17 0 0)
(-4.24798e-17 0 0)
(-1.30051e-16 -6.50519e-18 0)
(-9.91176e-17 -1.05167e-16 0)
(-2.14369e-16 5.31257e-17 0)
(-9.43251e-17 1.7564e-16 0)
(6.68107e-17 1.19262e-17 0)
(2.59415e-16 0 0)
(5.72815e-17 1.95156e-17 0)
(-1.2548e-16 1.87566e-16 0)
(-1.79908e-16 1.45283e-16 0)
(-9.15904e-17 7.37255e-17 0)
(0 1.51788e-16 0)
(0 0 0)
(1.74068e-16 0 0)
(4.60334e-16 0 0)
(9.87172e-17 7.58939e-17 0)
(-3.72726e-16 3.44775e-16 0)
(-3.05486e-16 5.48604e-16 0)
(-2.68555e-16 2.27682e-16 0)
(-4.8767e-17 0 0)
(-1.79668e-24 0 0)
(1.42787e-16 0 0)
(4.2177e-16 0 0)
(8.64076e-17 4.33679e-18 0)
(-1.90927e-16 0 0)
(4.20816e-17 2.05998e-16 0)
(2.78421e-16 5.63783e-17 0)
(-2.45219e-17 7.15571e-17 0)
(-3.60411e-16 0 0)
(-1.14859e-16 0 0)
(-2.77035e-17 1.01915e-16 0)
(-1.89145e-16 0 0)
(1.76154e-18 0 0)
(1.03917e-16 0 0)
(5.35366e-17 6.93887e-17 0)
(1.50132e-16 2.75386e-16 0)
(-7.27427e-17 5.009e-16 0)
(-3.3819e-16 2.36355e-16 0)
(-3.3604e-16 0 0)
(-8.66885e-18 4.77047e-17 0)
(2.71428e-16 0 0)
(6.83755e-17 0 0)
(-2.0938e-22 9.10727e-17 0)
(-3.80197e-19 3.40438e-16 0)
(2.10176e-21 1.58293e-16 0)
(1.47793e-17 1.79977e-16 0)
(7.64268e-17 3.94648e-16 0)
(1.7384e-16 3.85975e-16 0)
(8.30855e-13 1.42464e-15 0)
(5.76871e-09 1.32706e-15 0)
(3.81923e-06 9.25908e-16 0)
(0.000338583 1.56907e-14 0)
(0.00603229 -2.5714e-14 0)
(0.0341855 2.42446e-14 0)
(0.0953365 2.08234e-16 0)
(0.18008 -1.63846e-14 0)
(0.276704 1.01707e-14 0)
(0.379372 -2.97993e-15 0)
(0.485781 1.64615e-15 0)
(0.595792 -9.79593e-16 0)
(0.708236 4.46116e-15 0)
(0.823657 1.21913e-15 0)
(0.913414 6.69827e-16 0)
(0.948713 2.04867e-15 0)
(0.923006 1.77365e-15 0)
(0.925119 5.6382e-15 0)
(0.928526 4.14947e-15 0)
(0.931915 2.52366e-15 0)
(0.931486 8.03022e-16 0)
(0.941021 -1.82558e-15 0)
(0.957849 5.04079e-16 0)
(0.942767 -1.03892e-15 0)
(0.852635 1.0401e-15 0)
(0.517 5.38168e-15 0)
(0.0815587 2.49293e-16 0)
(0.00123965 2.28731e-15 0)
(1.30906e-06 1.14058e-15 0)
(7.03343e-11 6.93887e-16 0)
(1.68077e-15 1.74556e-16 0)
(1.46743e-17 7.48097e-17 0)
(1.29003e-16 1.6263e-16 0)
(2.18643e-16 3.32849e-16 0)
(4.86407e-17 1.63714e-16 0)
(-1.50277e-16 1.37693e-16 0)
(-2.51689e-17 1.56125e-16 0)
(1.9464e-17 3.46943e-17 0)
(-7.11442e-17 1.51788e-16 0)
(4.61668e-17 2.67797e-16 0)
(1.49724e-16 1.66967e-16 0)
(-4.78577e-18 6.83045e-17 0)
(-1.85034e-16 9.64936e-17 0)
(-7.28679e-17 1.60461e-16 0)
(1.0499e-16 1.2902e-16 0)
(1.05672e-16 6.83045e-17 0)
(-1.24898e-18 1.85398e-16 0)
(1.06999e-16 2.92734e-16 0)
(1.63661e-16 1.10588e-16 0)
(-4.99094e-18 -9.43252e-17 0)
(-1.74465e-16 -5.63783e-17 0)
(-7.27471e-17 5.20415e-17 0)
(-7.08192e-17 -4.98731e-17 0)
(-1.71734e-16 5.42099e-17 0)
(-7.05898e-17 1.19262e-17 0)
(-6.58854e-17 2.03829e-16 0)
(-1.15824e-16 3.69712e-16 0)
(-2.50936e-17 2.30934e-16 0)
(1.87183e-16 8.99885e-17 0)
(1.37963e-16 -5.85467e-17 0)
(-6.7873e-17 1.27935e-16 0)
(-2.68262e-16 3.29596e-16 0)
(-1.65869e-16 2.33103e-16 0)
(-1.8323e-16 3.33933e-16 0)
(-2.1684e-18 -2.1684e-18 0)
(2.08805e-16 -2.1684e-18 0)
(5.09191e-16 -2.1684e-18 0)
(1.75788e-16 3.90311e-17 0)
(-2.06243e-16 2.86228e-16 0)
(-5.22245e-16 1.40946e-16 0)
(-2.48406e-16 -2.1684e-18 0)
(-3.38184e-17 -2.1684e-18 0)
(-1.41858e-21 0 0)
(5.2842e-17 0 0)
(2.78645e-16 -4.33679e-18 0)
(9.61359e-17 -1.73472e-16 0)
(1.30327e-16 1.60461e-16 0)
(8.23595e-17 5.09573e-16 0)
(1.8495e-16 2.38524e-16 0)
(-1.65658e-17 0 0)
(-2.01647e-16 -2.1684e-18 0)
(-4.98345e-19 1.17093e-16 0)
(-5.38978e-17 3.49112e-16 0)
(-2.37103e-16 1.73472e-16 0)
(7.20579e-18 0 0)
(2.22774e-16 1.23599e-16 0)
(6.26899e-17 3.05744e-16 0)
(2.38824e-16 1.2143e-16 0)
(-1.25716e-16 1.14925e-16 0)
(-4.88736e-16 5.20415e-17 0)
(-4.48565e-16 -4.33679e-18 0)
(-2.81115e-17 0 0)
(3.49241e-16 -2.1684e-18 0)
(9.97773e-17 0 0)
(-9.41764e-22 0 0)
(-1.39101e-18 9.10727e-17 0)
(8.55034e-21 0 0)
(2.50499e-17 -4.81481e-34 0)
(1.17514e-16 1.27935e-16 0)
(2.91077e-16 1.2143e-16 0)
(8.32687e-13 9.30242e-16 0)
(5.76871e-09 3.34584e-15 0)
(3.81923e-06 4.33681e-17 0)
(0.000338583 8.26179e-15 0)
(0.00603229 -1.86066e-14 0)
(0.0341855 1.34283e-14 0)
(0.0953365 8.59172e-15 0)
(0.18008 -2.03041e-14 0)
(0.276704 1.33867e-14 0)
(0.379372 -2.45984e-15 0)
(0.485781 1.65948e-15 0)
(0.595792 -5.97718e-16 0)
(0.708236 8.05231e-16 0)
(0.823657 -3.65396e-15 0)
(0.913414 -1.8134e-16 0)
(0.948713 9.06885e-16 0)
(0.923006 2.78892e-15 0)
(0.925119 4.36547e-15 0)
(0.928526 3.27276e-15 0)
(0.931915 2.2979e-15 0)
(0.931486 1.25221e-15 0)
(0.941021 -3.5533e-16 0)
(0.957849 -2.27871e-16 0)
(0.942767 -1.02881e-15 0)
(0.852635 5.35674e-16 0)
(0.517 1.2768e-15 0)
(0.0815587 3.74142e-15 0)
(0.00123965 3.50136e-15 0)
(1.30906e-06 -1.42789e-15 0)
(7.03335e-11 5.78962e-16 0)
(1.68556e-15 3.69712e-16 0)
(7.35648e-17 2.22261e-16 0)
(1.87651e-16 2.94902e-16 0)
(7.06465e-17 3.42607e-16 0)
(-9.44635e-17 2.04913e-16 0)
(-2.06539e-16 3.16586e-16 0)
(-4.55907e-17 2.95986e-16 0)
(3.18807e-17 1.45283e-16 0)
(9.49913e-17 2.48281e-16 0)
(1.83339e-17 2.91649e-16 0)
(6.92154e-17 3.57785e-16 0)
(-2.91335e-17 2.01661e-16 0)
(-1.9689e-16 1.92987e-16 0)
(-4.04568e-17 3.50196e-16 0)
(9.70617e-17 3.79469e-16 0)
(2.37688e-16 2.38524e-16 0)
(1.86773e-16 3.82722e-16 0)
(-2.50462e-17 3.78385e-16 0)
(-1.26039e-16 1.45283e-16 0)
(-1.97561e-17 -2.1684e-17 0)
(3.12764e-17 7.91465e-17 0)
(-7.24982e-17 1.25767e-16 0)
(-1.24446e-16 1.73472e-17 0)
(-6.93842e-17 1.19262e-16 0)
(4.49555e-18 1.6263e-17 0)
(3.33185e-17 8.99885e-17 0)
(-1.51061e-16 2.39608e-16 0)
(-1.65692e-16 4.29343e-16 0)
(-1.47147e-17 2.93818e-16 0)
(-4.13414e-17 1.2143e-16 0)
(5.29821e-17 1.19262e-17 0)
(-1.03128e-16 1.64798e-16 0)
(-2.38812e-16 1.87566e-16 0)
(-4.15248e-16 1.66967e-16 0)
(-2.1684e-18 2.1684e-18 0)
(2.7107e-16 2.1684e-18 0)
(6.05252e-16 2.1684e-18 0)
(2.24208e-16 1.66967e-16 0)
(-3.89502e-16 -1.36609e-16 0)
(-4.70414e-16 -5.37762e-16 0)
(-1.64809e-16 -2.34187e-16 0)
(-6.51065e-19 2.1684e-18 0)
(-1.66421e-19 0 0)
(9.9064e-17 -2.1684e-18 0)
(3.41181e-16 -6.07151e-17 0)
(1.61727e-16 1.14925e-16 0)
(3.41456e-16 0 0)
(1.59754e-16 1.60461e-16 0)
(2.10732e-16 -2.1684e-18 0)
(-3.12867e-17 9.10727e-17 0)
(-2.99409e-16 2.1684e-18 0)
(-4.45352e-17 2.1684e-18 0)
(-7.5499e-17 -1.51788e-17 0)
(-2.85125e-16 0 0)
(4.03578e-17 0 0)
(2.88513e-16 2.60208e-16 0)
(3.73425e-17 3.46943e-17 0)
(-4.05444e-17 -7.15571e-17 0)
(-6.68432e-17 -3.33933e-16 0)
(-2.47949e-16 -1.51788e-16 0)
(-2.04025e-16 -1.14925e-16 0)
(5.4734e-17 0 0)
(1.0027e-16 2.1684e-18 0)
(1.18878e-22 0 0)
(-9.01823e-20 0 0)
(-1.20274e-17 0 0)
(3.3609e-19 0 0)
(5.87663e-17 2.1684e-18 0)
(2.66823e-16 1.95156e-17 0)
(2.70303e-16 2.01661e-16 0)
(8.32457e-13 -1.7564e-16 0)
(5.76871e-09 6.95622e-15 0)
(3.81923e-06 -9.93129e-16 0)
(0.000338583 6.29232e-15 0)
(0.00603229 -7.34063e-15 0)
(0.0341855 -6.29555e-16 0)
(0.0953365 1.94964e-14 0)
(0.18008 -2.40235e-14 0)
(0.276704 1.66082e-14 0)
(0.379372 -3.64214e-15 0)
(0.485781 -1.78944e-15 0)
(0.595792 5.07322e-16 0)
(0.708236 -1.48705e-15 0)
(0.823657 -2.15349e-15 0)
(0.913414 -5.19861e-16 0)
(0.948713 -1.28312e-15 0)
(0.923006 1.74501e-15 0)
(0.925119 -7.66929e-16 0)
(0.928526 4.40431e-16 0)
(0.931915 2.6126e-15 0)
(0.931486 -3.8835e-16 0)
(0.941021 1.79898e-15 0)
(0.957849 -2.23136e-15 0)
(0.942767 -1.66713e-15 0)
(0.852635 -6.33269e-16 0)
(0.517 -2.92148e-15 0)
(0.0815587 1.26754e-14 0)
(0.00123965 -1.35917e-15 0)
(1.30906e-06 -1.91903e-16 0)
(7.0334e-11 -4.67289e-16 0)
(1.5512e-15 2.26597e-16 0)
(5.5833e-17 2.19008e-16 0)
(1.83516e-16 1.01915e-16 0)
(8.52781e-17 1.51788e-16 0)
(1.30918e-18 6.50519e-17 0)
(-9.97841e-17 1.69135e-16 0)
(-1.50856e-17 9.21569e-17 0)
(6.25686e-17 1.49619e-16 0)
(-3.18877e-17 1.70219e-16 0)
(4.48688e-17 8.99885e-17 0)
(1.34711e-16 1.90819e-16 0)
(3.24954e-17 8.99885e-17 0)
(-4.76395e-17 1.95156e-16 0)
(7.29762e-17 3.48028e-16 0)
(5.95489e-18 4.60784e-16 0)
(1.20724e-16 3.55617e-16 0)
(1.41479e-17 2.0925e-16 0)
(-6.51205e-17 1.79977e-16 0)
(-1.45718e-16 2.38524e-16 0)
(-2.96849e-17 1.85398e-16 0)
(1.89282e-17 2.52618e-16 0)
(-1.55425e-16 1.14925e-16 0)
(-2.74514e-16 1.35525e-16 0)
(-1.92393e-16 -3.79469e-17 0)
(4.24985e-18 -8.67359e-17 0)
(2.07814e-16 -9.8662e-17 0)
(1.04602e-16 -4.77047e-17 0)
(5.49356e-17 2.28766e-16 0)
(3.34904e-17 4.48858e-16 0)
(-1.05672e-16 3.31765e-16 0)
(-1.25529e-16 6.72203e-17 0)
(-2.04241e-16 -1.35525e-16 0)
(-3.27638e-16 -5.09573e-17 0)
(-4.48858e-16 -1.70219e-16 0)
(0 0 0)
(1.59588e-16 0 0)
(4.41578e-16 -4.55363e-17 0)
(1.9407e-17 -2.08166e-16 0)
(-5.00627e-16 -5.22584e-16 0)
(-2.00086e-16 -2.23345e-16 0)
(-2.76266e-17 -1.95156e-17 0)
(1.93931e-18 0 0)
(-4.11353e-18 0 0)
(1.39455e-16 2.1684e-18 0)
(4.00508e-16 1.23599e-16 0)
(1.73278e-16 2.77555e-16 0)
(-7.0041e-17 3.46943e-17 0)
(9.28031e-17 -1.95156e-16 0)
(2.80207e-16 -6.50519e-17 0)
(-4.73239e-17 -9.32411e-17 0)
(-3.88654e-16 0 0)
(-9.82157e-17 -9.97462e-17 0)
(-2.81481e-18 -3.77301e-16 0)
(-5.86387e-17 -1.36609e-16 0)
(1.76382e-16 0 0)
(4.42569e-17 1.51788e-17 0)
(-1.84656e-16 -2.23345e-16 0)
(-2.1978e-17 -4.33679e-17 0)
(1.98291e-20 -9.10727e-17 0)
(-4.33461e-18 0 0)
(-5.56554e-20 1.19262e-16 0)
(2.15096e-19 0 0)
(1.31334e-18 0 0)
(-2.06879e-22 0 0)
(-2.18062e-18 0 0)
(-7.00627e-17 0 0)
(3.62866e-18 0 0)
(1.25628e-16 0 0)
(2.96728e-16 -6.50519e-18 0)
(4.26926e-16 -1.36609e-16 0)
(8.31492e-13 -3.25259e-16 0)
(5.76872e-09 2.70399e-15 0)
(3.81923e-06 1.02132e-15 0)
(0.000338583 3.90423e-15 0)
(0.00603229 -1.51477e-15 0)
(0.0341855 -1.21725e-14 0)
(0.0953365 2.39669e-14 0)
(0.18008 -2.64347e-14 0)
(0.276704 1.38032e-14 0)
(0.379372 -4.56741e-15 0)
(0.485781 -2.37259e-15 0)
(0.595792 8.32009e-16 0)
(0.708236 -9.36865e-16 0)
(0.823657 -5.44378e-16 0)
(0.913414 -2.32479e-15 0)
(0.948713 -1.90374e-15 0)
(0.923006 -7.37789e-16 0)
(0.925119 -1.71826e-15 0)
(0.928526 -1.04221e-16 0)
(0.931915 1.003e-15 0)
(0.931486 -2.66754e-15 0)
(0.941021 1.97142e-16 0)
(0.957849 -3.70562e-15 0)
(0.942767 -2.70302e-15 0)
(0.852635 -6.78228e-16 0)
(0.517 -8.31322e-16 0)
(0.0815587 1.10104e-14 0)
(0.00123965 -4.07319e-15 0)
(1.30906e-06 1.02999e-15 0)
(7.03352e-11 -5.91972e-16 0)
(1.66496e-15 5.52941e-17 0)
(-1.04812e-16 6.61361e-17 0)
(2.90998e-17 -6.72203e-17 0)
(1.6495e-16 -1.19262e-17 0)
(4.68649e-18 0 0)
(-1.22295e-16 -9.75778e-18 0)
(-2.02982e-17 -1.10588e-16 0)
(8.24115e-17 -7.58939e-18 0)
(-1.94779e-17 8.59443e-32 0)
(8.41007e-17 -1.05167e-16 0)
(1.87666e-16 -1.0842e-18 0)
(6.0024e-17 0 0)
(2.55915e-17 2.49366e-17 0)
(1.18311e-16 1.35525e-16 0)
(1.08538e-17 2.4286e-16 0)
(4.60066e-20 1.79977e-16 0)
(-2.76075e-17 9.75778e-18 0)
(-1.31893e-16 0 0)
(-4.01238e-18 8.78201e-17 0)
(1.34457e-16 2.61292e-16 0)
(1.12397e-17 9.32411e-17 0)
(-2.49246e-16 0 0)
(-4.5382e-16 7.26413e-17 0)
(-3.24214e-16 -7.15571e-17 0)
(-1.06463e-16 2.05998e-17 0)
(1.16663e-16 -2.13587e-16 0)
(3.35524e-16 -2.47197e-16 0)
(2.96911e-16 -1.40946e-17 0)
(5.36067e-17 2.33103e-16 0)
(-1.79812e-16 1.45283e-16 0)
(-3.22842e-16 -9.54094e-17 0)
(-2.93555e-16 -3.0466e-16 0)
(-1.91315e-16 -2.53702e-16 0)
(-2.58039e-16 -3.55617e-16 0)
(0 0 0)
(2.66145e-17 -2.60208e-17 0)
(1.80841e-16 -3.01407e-16 0)
(-3.73238e-17 -5.42099e-16 0)
(-1.89915e-16 -2.73218e-16 0)
(-1.57824e-17 0 0)
(3.66477e-17 0 0)
(1.59756e-17 0 0)
(-3.10324e-17 0 0)
(1.14896e-16 0 0)
(3.93e-16 0 0)
(1.25216e-18 7.58939e-17 0)
(-3.65729e-16 0 0)
(-7.37243e-17 -5.20415e-17 0)
(1.27646e-16 0 0)
(2.08467e-17 -9.32411e-17 0)
(-2.06892e-16 0 0)
(-3.73965e-17 0 0)
(-7.07376e-18 -1.14925e-16 0)
(-9.18631e-18 0 0)
(1.27108e-16 0 0)
(2.7674e-18 -9.32411e-17 0)
(-1.33373e-16 -4.55363e-17 0)
(-1.29041e-17 0 0)
(1.48597e-19 0 0)
(-5.62814e-19 0 0)
(-2.09074e-19 0 0)
(6.84223e-19 0 0)
(-1.254e-18 0 0)
(-1.71258e-20 0 0)
(-1.7265e-17 0 0)
(-1.62098e-16 0 0)
(1.34762e-17 -9.75778e-17 0)
(1.94372e-16 0 0)
(1.46533e-16 -1.8865e-16 0)
(1.24814e-16 -4.57532e-16 0)
(8.31737e-13 -2.60208e-16 0)
(5.76872e-09 3.5128e-16 0)
(3.81923e-06 9.69276e-16 0)
(0.000338583 2.2124e-16 0)
(0.00603229 1.78939e-15 0)
(0.0341855 -1.44329e-14 0)
(0.0953365 2.10964e-14 0)
(0.18008 -2.06384e-14 0)
(0.276704 1.01252e-14 0)
(0.379372 -1.80066e-15 0)
(0.485781 -7.53098e-16 0)
(0.595792 5.12857e-16 0)
(0.708236 4.7306e-17 0)
(0.823657 -2.43941e-15 0)
(0.913414 4.65898e-16 0)
(0.948713 1.11529e-15 0)
(0.923006 -3.80161e-16 0)
(0.925119 -7.44208e-16 0)
(0.928526 6.2983e-16 0)
(0.931915 -3.52704e-16 0)
(0.931486 -2.2835e-15 0)
(0.941021 -6.88334e-16 0)
(0.957849 -1.44664e-15 0)
(0.942767 -1.46431e-15 0)
(0.852635 -8.49293e-16 0)
(0.517 1.23369e-15 0)
(0.0815587 2.83545e-15 0)
(0.00123965 -8.22003e-16 0)
(1.30906e-06 4.99815e-16 0)
(7.03353e-11 -2.67797e-16 0)
(1.57315e-15 0 0)
(-1.08456e-16 -5.20415e-17 0)
(8.1998e-17 -1.0842e-17 0)
(2.03932e-16 0 0)
(4.79199e-18 8.23991e-17 0)
(-1.91503e-16 0 0)
(-3.91084e-17 -1.51788e-17 0)
(8.14486e-17 -8.67359e-17 0)
(-2.25868e-17 -2.05998e-17 0)
(7.63408e-17 -2.27682e-17 0)
(1.95689e-16 0 0)
(3.85941e-17 0 0)
(6.59828e-17 2.1684e-18 0)
(1.9135e-16 0 0)
(5.22065e-17 0 0)
(-1.42594e-18 0 0)
(-3.30795e-17 0 0)
(-1.60468e-16 0 0)
(3.76286e-17 0 0)
(2.17515e-16 1.16009e-16 0)
(1.81563e-17 0 0)
(-2.3928e-16 0 0)
(-4.59344e-16 0 0)
(-2.84898e-16 0 0)
(-1.60239e-16 -1.6263e-17 0)
(2.24247e-17 -8.89043e-17 0)
(2.93965e-16 -9.8662e-17 0)
(3.70167e-16 0 0)
(1.14067e-16 0 0)
(-2.63516e-16 0 0)
(-4.4718e-16 5.63783e-17 0)
(-2.87365e-16 -9.64936e-17 0)
(-9.84176e-17 -8.13149e-17 0)
(-8.34833e-17 -1.8323e-16 0)
(8.67359e-17 1.99492e-16 0)
(8.64109e-17 0 0)
(-7.5319e-17 -5.42099e-17 0)
(-5.4719e-17 -2.66713e-16 0)
(-1.42024e-17 -4.77047e-17 0)
(1.24196e-17 0 0)
(1.77609e-16 8.67359e-18 0)
(4.82027e-17 1.64798e-16 0)
(-9.95209e-17 4.77047e-17 0)
(1.19212e-16 -2.1684e-18 0)
(4.05913e-16 0 0)
(3.95607e-17 0 0)
(-3.26693e-16 0 0)
(-3.66507e-17 -7.15571e-17 0)
(1.74217e-16 0 0)
(2.5882e-17 9.32411e-17 0)
(-2.04674e-16 4.55363e-17 0)
(-1.27933e-16 0 0)
(-3.05873e-17 0 0)
(9.21686e-18 0 0)
(2.01893e-16 0 0)
(5.11171e-18 9.32411e-17 0)
(-1.93316e-16 0 0)
(-1.92209e-17 0 0)
(1.99788e-18 0 0)
(-1.25535e-17 0 0)
(-5.34649e-18 0 0)
(8.82794e-19 0 0)
(-1.90648e-17 0 0)
(-3.81008e-19 0 0)
(-5.68986e-17 0 0)
(-1.89338e-16 -1.60461e-16 0)
(1.7977e-17 -3.49112e-16 0)
(2.17022e-16 -1.66967e-16 0)
(5.15628e-17 -6.50519e-18 0)
(5.75921e-17 -1.69135e-16 0)
(8.31847e-13 -6.50519e-18 0)
(5.76872e-09 -1.0018e-15 0)
(3.81923e-06 6.22332e-16 0)
(0.000338583 -1.68316e-15 0)
(0.00603229 3.27146e-15 0)
(0.0341855 -1.02046e-14 0)
(0.0953365 1.27764e-14 0)
(0.18008 -1.17306e-14 0)
(0.276704 2.53888e-15 0)
(0.379372 -1.36523e-15 0)
(0.485781 4.76518e-16 0)
(0.595792 -2.57351e-16 0)
(0.708236 1.84391e-15 0)
(0.823657 3.04211e-16 0)
(0.913414 1.76822e-15 0)
(0.948713 2.08139e-15 0)
(0.923006 3.29301e-16 0)
(0.925119 -3.06245e-17 0)
(0.928526 -6.32254e-16 0)
(0.931915 -1.42412e-15 0)
(0.931486 -1.87616e-15 0)
(0.941021 -1.1895e-15 0)
(0.957849 -8.79919e-16 0)
(0.942767 -5.81676e-17 0)
(0.852635 -5.91599e-16 0)
(0.517 2.09878e-15 0)
(0.0815587 -2.08859e-15 0)
(0.00123965 -8.33916e-17 0)
(1.30906e-06 -1.35741e-15 0)
(7.03357e-11 -7.48097e-17 0)
(1.62311e-15 -2.1684e-18 0)
(-1.25306e-16 5.20415e-17 0)
(6.19162e-17 0 0)
(2.04318e-16 -9.8662e-17 0)
(4.15782e-18 -8.23991e-17 0)
(-1.95364e-16 -1.34441e-16 0)
(-4.5884e-17 -9.8662e-17 0)
(9.34047e-17 -2.40692e-16 0)
(-9.57722e-18 -1.36609e-16 0)
(1.14284e-16 -1.19262e-17 0)
(2.49786e-16 -8.78201e-17 0)
(9.99883e-17 -8.56517e-17 0)
(4.08561e-18 6.39677e-17 0)
(3.53364e-18 -7.69781e-17 0)
(-2.76158e-18 -1.86482e-16 0)
(1.90111e-17 -1.71303e-16 0)
(9.91982e-17 -1.38777e-16 0)
(-5.55733e-18 -1.51788e-17 0)
(4.01914e-17 6.83045e-17 0)
(1.047e-16 0 0)
(-2.13673e-19 0 0)
(-2.08381e-16 0 0)
(-4.14897e-16 0 0)
(-4.12466e-16 6.07151e-17 0)
(-2.43701e-16 -1.06251e-16 0)
(7.74476e-17 -1.0842e-18 0)
(3.6111e-16 0 0)
(3.93064e-16 -4.22837e-17 0)
(1.9772e-16 -1.44198e-16 0)
(-1.24309e-16 4.01153e-17 0)
(-3.54785e-16 2.27682e-16 0)
(-4.04032e-16 1.25767e-16 0)
(-2.41748e-16 1.53956e-16 0)
(-1.40946e-16 1.16009e-16 0)
(3.64291e-16 4.70542e-16 0)
(1.41241e-16 1.84314e-16 0)
(-2.02726e-16 1.34441e-16 0)
(-2.42303e-16 -1.32272e-16 0)
(-3.8595e-17 2.1684e-18 0)
(9.9755e-17 0 0)
(2.86955e-16 2.47197e-16 0)
(7.88375e-17 4.51026e-16 0)
(-1.06508e-16 2.68881e-16 0)
(1.47126e-16 1.10588e-16 0)
(2.97259e-16 1.30104e-16 0)
(3.82677e-17 -1.30104e-16 0)
(-2.29706e-16 -7.80623e-17 0)
(-2.78385e-17 -2.68881e-16 0)
(1.94623e-16 -7.15571e-17 0)
(3.95022e-17 3.32222e-32 0)
(-2.21656e-16 2.62376e-16 0)
(-3.0827e-16 8.23991e-17 0)
(-8.95231e-17 0 0)
(4.72109e-17 0 0)
(2.52443e-16 0 0)
(6.11533e-18 -3.03576e-17 0)
(-2.1515e-16 0 0)
(-1.40217e-17 0 0)
(6.07085e-18 0 0)
(-9.59562e-17 0 0)
(-4.17159e-17 0 0)
(-4.77667e-18 0 0)
(-8.91277e-17 0 0)
(-3.73628e-18 0 0)
(-9.26539e-17 0 0)
(-3.4084e-16 8.67359e-18 0)
(1.09282e-17 2.1684e-17 0)
(3.3539e-16 0 0)
(6.38462e-17 0 0)
(-6.18073e-17 0 0)
(8.31969e-13 -1.0842e-17 0)
(5.76872e-09 -4.10694e-15 0)
(3.81923e-06 8.76035e-16 0)
(0.000338583 -2.49437e-15 0)
(0.00603229 2.34734e-15 0)
(0.0341855 -3.2114e-15 0)
(0.0953365 1.77411e-15 0)
(0.18008 -6.55991e-16 0)
(0.276704 -4.97985e-15 0)
(0.379372 -1.46351e-15 0)
(0.485781 4.74852e-16 0)
(0.595792 -6.74278e-16 0)
(0.708236 1.74107e-15 0)
(0.823657 2.64755e-15 0)
(0.913414 3.42161e-15 0)
(0.948713 3.00594e-15 0)
(0.923006 1.00303e-15 0)
(0.925119 9.71093e-16 0)
(0.928526 -1.73575e-15 0)
(0.931915 -3.68401e-15 0)
(0.931486 -5.9806e-16 0)
(0.941021 -2.11678e-15 0)
(0.957849 -4.63634e-16 0)
(0.942767 1.07382e-15 0)
(0.852635 -4.09569e-16 0)
(0.517 3.24697e-15 0)
(0.0815587 -5.58578e-15 0)
(0.00123965 2.27432e-17 0)
(1.30906e-06 -1.04517e-15 0)
(7.03355e-11 2.21176e-16 0)
(1.81304e-15 -2.15755e-16 0)
(-4.20454e-17 2.05998e-17 0)
(-4.11786e-17 -8.56517e-17 0)
(7.04183e-17 -2.37439e-16 0)
(1.14049e-18 -1.82145e-16 0)
(-5.50558e-17 -2.82976e-16 0)
(-5.32316e-17 -1.36609e-16 0)
(9.05719e-17 -7.26413e-17 0)
(-1.15214e-17 -3.57785e-17 0)
(2.88046e-17 -8.13149e-17 0)
(1.62972e-16 -2.1684e-16 0)
(1.16917e-16 -2.47197e-16 0)
(7.78155e-18 -1.35525e-16 0)
(-1.07149e-16 -2.58039e-16 0)
(-3.28355e-18 -3.8489e-16 0)
(4.52495e-17 -3.64291e-16 0)
(1.72432e-16 -3.29596e-16 0)
(7.03261e-17 -1.78893e-16 0)
(7.68209e-17 -6.83045e-17 0)
(1.14239e-16 0 0)
(-8.68771e-18 0 0)
(-6.69514e-17 -6.72203e-17 0)
(-2.96137e-16 2.38524e-17 0)
(-4.33745e-16 2.15755e-16 0)
(-2.18058e-16 9.54094e-17 0)
(4.22925e-17 1.0842e-18 0)
(2.37877e-16 9.10727e-17 0)
(3.57446e-16 -1.74556e-16 0)
(2.06513e-16 -3.28512e-16 0)
(6.60186e-17 -1.05167e-16 0)
(-2.67479e-16 5.09573e-17 0)
(-3.68777e-16 2.39608e-16 0)
(-2.37338e-16 3.66459e-16 0)
(-3.3827e-16 3.13333e-16 0)
(5.74625e-16 2.53702e-16 0)
(1.97858e-16 1.04083e-16 0)
(-2.47093e-16 3.90311e-17 0)
(-3.26162e-16 1.38777e-16 0)
(-1.1574e-17 5.42099e-17 0)
(2.65199e-16 1.97324e-16 0)
(4.77227e-16 1.6263e-16 0)
(1.27581e-16 2.19008e-16 0)
(-2.87766e-16 1.86482e-16 0)
(2.48085e-16 3.62122e-16 0)
(-6.10034e-17 4.98731e-17 0)
(-1.91375e-16 -2.53702e-16 0)
(-1.70074e-16 4.81481e-34 0)
(-8.61252e-17 8.45675e-17 0)
(2.24553e-16 -2.1684e-18 0)
(2.67837e-16 -2.27682e-16 0)
(-4.62551e-17 8.23991e-17 0)
(-4.15118e-16 2.34187e-16 0)
(-1.49463e-16 5.85467e-17 0)
(8.58676e-17 1.45283e-16 0)
(-1.3962e-16 -2.1684e-18 0)
(-1.23945e-16 -2.79723e-16 0)
(1.22961e-16 2.81892e-17 0)
(2.84438e-16 2.49366e-16 0)
(2.9587e-18 1.17093e-16 0)
(-2.89899e-16 2.38524e-17 0)
(-1.26991e-16 0 0)
(-2.58883e-17 0 0)
(-1.95593e-16 2.60208e-17 0)
(-2.18303e-17 -4.33679e-18 0)
(5.44979e-17 2.60208e-17 0)
(-1.24859e-16 2.08166e-16 0)
(5.38077e-17 3.88143e-16 0)
(5.16228e-17 1.23599e-16 0)
(-1.63574e-16 6.50519e-18 0)
(-1.7532e-16 -1.25767e-16 0)
(8.32134e-13 -7.37255e-17 0)
(5.76871e-09 -2.40258e-15 0)
(3.81923e-06 -3.80772e-15 0)
(0.000338583 5.46593e-15 0)
(0.00603229 -6.59087e-15 0)
(0.0341855 5.58005e-15 0)
(0.0953365 -1.05211e-14 0)
(0.18008 9.81834e-15 0)
(0.276704 -9.09088e-15 0)
(0.379372 2.24213e-15 0)
(0.485781 -4.76518e-16 0)
(0.595792 1.36516e-16 0)
(0.708236 1.14563e-15 0)
(0.823657 -1.66973e-15 0)
(0.913414 4.04594e-15 0)
(0.948713 3.57225e-15 0)
(0.923006 1.4833e-15 0)
(0.925119 3.05257e-16 0)
(0.928526 6.78651e-17 0)
(0.931915 -2.28878e-15 0)
(0.931486 5.16506e-16 0)
(0.941021 -2.49586e-15 0)
(0.957849 -9.62781e-16 0)
(0.942767 5.86734e-16 0)
(0.852635 1.56809e-16 0)
(0.517 1.432e-15 0)
(0.0815587 -3.42828e-15 0)
(0.00123965 -2.10103e-16 0)
(1.30906e-06 -3.69711e-16 0)
(7.03351e-11 -4.01153e-17 0)
(2.11308e-15 -2.17924e-16 0)
(4.90574e-17 -1.50704e-16 0)
(-5.91041e-17 1.6263e-17 0)
(4.40008e-17 -5.52941e-17 0)
(3.61441e-18 -3.46943e-17 0)
(-2.80734e-17 -1.31188e-16 0)
(7.77103e-17 -2.7105e-17 0)
(1.99047e-17 3.68627e-17 0)
(-8.4223e-17 -6.72203e-17 0)
(-8.4826e-17 3.46943e-17 0)
(6.08493e-17 -8.99885e-17 0)
(1.62404e-16 -9.64936e-17 0)
(-1.16008e-17 -3.46943e-17 0)
(-1.54374e-16 -1.74556e-16 0)
(2.18084e-18 -1.82145e-16 0)
(8.8202e-17 -1.68051e-16 0)
(2.46056e-16 -1.58293e-16 0)
(1.44965e-16 -2.2985e-16 0)
(1.86227e-16 -8.34833e-17 0)
(1.35309e-16 0 0)
(-2.3004e-18 -8.78201e-17 0)
(2.43445e-17 -2.32018e-16 0)
(-2.24866e-17 -9.75778e-18 0)
(-2.42496e-16 2.13587e-16 0)
(-2.40166e-16 2.99239e-16 0)
(-5.87548e-17 1.18178e-16 0)
(1.00327e-16 0 0)
(1.77393e-16 -1.30104e-16 0)
(3.46878e-16 -2.19008e-16 0)
(2.02184e-16 -6.93887e-17 0)
(-8.42215e-17 -9.32411e-17 0)
(-2.42038e-16 1.11672e-16 0)
(-3.09345e-16 1.8323e-16 0)
(-4.60784e-16 1.95156e-16 0)
(3.83806e-16 -4.33679e-18 0)
(1.29024e-16 2.55871e-16 0)
(-1.83117e-16 2.21176e-16 0)
(-1.17099e-16 4.03322e-16 0)
(1.30659e-16 2.81892e-16 0)
(3.67485e-16 5.11742e-16 0)
(2.948e-16 3.42607e-16 0)
(2.86837e-18 1.23599e-16 0)
(-1.04978e-16 1.97324e-16 0)
(-1.10516e-16 4.33679e-18 0)
(-2.81366e-16 -2.66713e-16 0)
(-4.30645e-17 -3.68627e-17 0)
(-1.9313e-16 2.40692e-16 0)
(-2.03635e-17 4.4669e-16 0)
(2.15242e-16 2.08166e-16 0)
(9.2908e-17 -4.55363e-17 0)
(4.7332e-17 1.69135e-16 0)
(-2.25626e-16 4.38016e-16 0)
(-4.18254e-17 2.60208e-16 0)
(7.4182e-17 4.18501e-16 0)
(-1.56605e-16 2.08166e-16 0)
(-1.31457e-16 6.28835e-17 0)
(1.44215e-16 2.53702e-16 0)
(3.24987e-16 5.85467e-16 0)
(-3.34504e-17 3.75133e-16 0)
(-4.02417e-16 2.27682e-16 0)
(-1.97299e-16 2.81892e-17 0)
(-4.09839e-17 6.50519e-17 0)
(-2.23306e-16 1.30104e-16 0)
(-7.26092e-17 -9.10727e-17 0)
(1.58535e-16 0 0)
(1.16354e-16 0 0)
(2.05712e-16 1.8865e-16 0)
(-2.14095e-17 4.11995e-16 0)
(-2.1088e-16 2.27682e-16 0)
(3.46567e-17 1.23599e-16 0)
(8.31758e-13 -7.61107e-16 0)
(5.76871e-09 2.0101e-15 0)
(3.81923e-06 -7.89949e-15 0)
(0.000338583 9.26388e-15 0)
(0.00603229 -1.28897e-14 0)
(0.0341855 1.24371e-14 0)
(0.0953365 -2.24634e-14 0)
(0.18008 1.66455e-14 0)
(0.276704 -1.06603e-14 0)
(0.379372 3.51967e-15 0)
(0.485781 -2.80246e-15 0)
(0.595792 -1.05431e-15 0)
(0.708236 1.72256e-15 0)
(0.823657 -6.45019e-16 0)
(0.913414 2.34643e-15 0)
(0.948713 1.42085e-15 0)
(0.923006 1.70734e-15 0)
(0.925119 2.68047e-16 0)
(0.928526 2.96391e-16 0)
(0.931915 -1.59667e-15 0)
(0.931486 -4.8328e-17 0)
(0.941021 -1.84553e-15 0)
(0.957849 -9.12472e-16 0)
(0.942767 -1.5422e-15 0)
(0.852635 -1.05271e-16 0)
(0.517 -1.66408e-15 0)
(0.0815587 1.81092e-15 0)
(0.00123965 -1.02777e-15 0)
(1.30906e-06 -2.0307e-15 0)
(7.03351e-11 -5.24752e-16 0)
(1.90049e-15 4.01153e-17 0)
(1.98145e-16 -1.0842e-16 0)
(5.48415e-17 0 0)
(-1.21942e-16 1.12757e-16 0)
(-4.98176e-17 3.14417e-17 0)
(-1.52651e-18 1.32272e-16 0)
(1.0201e-16 3.03576e-17 0)
(1.26741e-17 -6.50519e-17 0)
(-8.90354e-17 3.79469e-17 0)
(2.09115e-17 1.45283e-16 0)
(1.81846e-16 1.23599e-16 0)
(9.23725e-17 0 0)
(-7.99827e-17 -8.23991e-17 0)
(-6.52363e-17 7.26413e-17 0)
(8.50225e-17 1.4203e-16 0)
(-2.60554e-21 4.01153e-17 0)
(5.30076e-17 6.28835e-17 0)
(1.79407e-16 -5.20415e-17 0)
(2.43257e-16 0 0)
(5.12537e-17 0 0)
(-1.17337e-16 -1.48535e-16 0)
(4.65019e-17 -5.09573e-17 0)
(1.53166e-16 0 0)
(-2.82297e-17 -1.40946e-17 0)
(-1.86296e-16 1.44198e-16 0)
(-1.29349e-16 1.73472e-17 0)
(5.90706e-17 5.63783e-17 0)
(1.36068e-16 1.30104e-16 0)
(2.62444e-16 6.28835e-17 0)
(1.24945e-16 -1.33356e-16 0)
(-1.65138e-16 -1.95156e-16 0)
(-3.1827e-16 -2.49366e-17 0)
(-2.71522e-16 0 0)
(-3.72964e-16 7.91465e-17 0)
(6.02814e-16 -2.2985e-16 0)
(2.35382e-16 -9.97462e-17 0)
(-1.54376e-16 -7.15571e-17 0)
(-1.55995e-16 1.40946e-16 0)
(1.77716e-16 9.97462e-17 0)
(4.64467e-16 2.10334e-16 0)
(1.29478e-16 -3.03576e-17 0)
(-9.83042e-17 -3.07912e-16 0)
(-3.28514e-16 -1.8865e-16 0)
(-4.20931e-16 -3.70796e-16 0)
(-7.73423e-17 -5.85467e-17 0)
(1.75297e-16 2.73218e-16 0)
(-2.08384e-17 8.02307e-17 0)
(-2.10591e-16 2.55871e-16 0)
(-2.86436e-17 -4.33679e-18 0)
(2.76938e-16 -3.90311e-17 0)
(1.71091e-16 -1.43114e-16 0)
(-1.49285e-17 4.33679e-17 0)
(1.46548e-18 4.33679e-18 0)
(2.10681e-17 4.33679e-17 0)
(-1.63617e-16 -1.43114e-16 0)
(-1.14975e-16 4.33679e-18 0)
(1.50795e-16 7.37255e-17 0)
(1.43127e-16 1.99492e-16 0)
(-2.02251e-16 8.67359e-18 0)
(-5.97119e-16 2.1684e-18 0)
(-2.31666e-16 0 0)
(1.43681e-16 0 0)
(-4.38611e-17 -6.07151e-17 0)
(-3.14264e-16 -3.27428e-16 0)