/*--------------------------------*- C++ -*----------------------------------*\
| =========                 |                                                 |
| \\      /  F ield         | OpenFOAM: The Open Source CFD Toolbox           |
|  \\    /   O peration     | Version:  4.1                                   |
|   \\  /    A nd           | Web:      www.OpenFOAM.org                      |
|    \\/     M anipulation  |                                                 |
\*---------------------------------------------------------------------------*/
FoamFile
{
    version     2.0;
    format      ascii;
    class       volVectorField;
    location    "0.27";
    object      U;
}
// * * * * * * * * * * * * * * * * * * * * * * * * * * * * * * * * * * * * * //

dimensions      [0 1 -1 0 0 0 0];

internalField   nonuniform List<vector> 
10000
(
(0 0 0)
(1.24231e-16 0 0)
(2.85335e-16 0 0)
(9.04327e-17 1.49619e-16 0)
(-1.19172e-16 0 0)
(-2.48003e-16 0 0)
(-2.28956e-16 0 0)
(-3.18961e-17 0 0)
(-7.58876e-24 0 0)
(1.96022e-16 1.40946e-16 0)
(4.43863e-16 0 0)
(1.20702e-16 -1.53956e-16 0)
(-2.53209e-16 0 0)
(1.96425e-17 0 0)
(1.5689e-16 0 0)
(-4.20574e-17 1.30104e-16 0)
(-2.43395e-16 0 0)
(-1.16232e-16 0 0)
(-2.14389e-17 0 0)
(-1.53831e-16 0 0)
(1.13751e-19 0 0)
(1.01998e-16 1.14925e-16 0)
(2.64282e-17 0 0)
(1.0254e-16 0 0)
(-9.49911e-17 6.50519e-18 0)
(-2.72071e-16 -6.50519e-17 0)
(-4.03027e-16 -3.31765e-16 0)
(1.7161e-14 3.9248e-16 0)
(2.29063e-10 1.06251e-16 0)
(2.75937e-07 1.84964e-15 0)
(4.22543e-05 2.65855e-15 0)
(0.00119479 -1.13522e-15 0)
(0.0095615 6.4357e-15 0)
(0.0332863 2.80609e-15 0)
(0.071412 7.33977e-15 0)
(0.11782 5.91429e-15 0)
(0.168281 -1.11373e-14 0)
(0.220869 6.13634e-15 0)
(0.274751 -4.40339e-15 0)
(0.329524 2.05587e-14 0)
(0.384978 3.95682e-14 0)
(0.441008 3.83109e-14 0)
(0.497574 1.44459e-14 0)
(0.554679 1.27888e-14 0)
(0.612347 1.33039e-14 0)
(0.670563 2.71311e-14 0)
(0.729236 2.10692e-14 0)
(0.787844 -1.04847e-15 0)
(0.84498 -3.04461e-14 0)
(0.896598 -4.46252e-15 0)
(0.931574 7.46503e-15 0)
(0.939088 1.0985e-14 0)
(0.924517 1.22404e-14 0)
(0.926077 1.19414e-14 0)
(0.927282 6.86289e-15 0)
(0.927604 6.21381e-15 0)
(0.927795 4.59552e-15 0)
(0.927808 2.60592e-15 0)
(0.927901 3.39244e-15 0)
(0.928014 5.68324e-15 0)
(0.928063 7.57891e-15 0)
(0.928463 8.01601e-15 0)
(0.929034 1.71889e-15 0)
(0.930236 8.00749e-15 0)
(0.932046 -1.26516e-15 0)
(0.927441 -2.77927e-15 0)
(0.923773 -1.45296e-15 0)
(0.924684 -1.41671e-15 0)
(0.925882 -1.60373e-15 0)
(0.929033 -3.20796e-15 0)
(0.930239 -5.87306e-15 0)
(0.925757 -6.66605e-15 0)
(0.889563 -6.69984e-15 0)
(0.703107 -4.15574e-15 0)
(0.249435 -1.801e-15 0)
(0.012346 7.30526e-16 0)
(4.85654e-05 6.93856e-17 0)
(1.11369e-08 -4.33679e-18 0)
(3.13048e-13 2.03829e-16 0)
(1.07146e-16 3.25259e-18 0)
(2.47484e-16 0 0)
(5.1445e-17 0 0)
(-1.42806e-16 0 0)
(6.35662e-17 0 0)
(2.65667e-16 9.97462e-17 0)
(8.36292e-17 0 0)
(-1.7241e-16 0 0)
(-7.21686e-17 0 0)
(-6.80964e-17 0 0)
(-1.748e-16 0 0)
(-2.47482e-16 -6.50519e-18 0)
(-3.98998e-16 0 0)
(-1.95614e-16 7.48097e-17 0)
(5.96006e-17 0 0)
(2.7012e-16 0 0)
(4.33215e-17 0 0)
(-2.0056e-16 1.31188e-16 0)
(-2.49991e-16 7.15571e-17 0)
(-1.49936e-16 5.42099e-18 0)
(-1.51788e-17 8.34833e-17 0)
(0 0 0)
(1.67451e-16 0 0)
(2.96541e-16 1.38777e-16 0)
(9.81648e-17 3.33933e-16 0)
(-1.29575e-16 1.25767e-16 0)
(-3.09731e-16 2.47197e-16 0)
(-2.8242e-16 4.98731e-17 0)
(-3.18364e-17 0 0)
(-1.34167e-21 0 0)
(2.17779e-16 0 0)
(5.12586e-16 0 0)
(1.52706e-16 0 0)
(-2.0959e-16 0 0)
(4.84642e-17 0 0)
(1.59509e-16 1.30104e-16 0)
(-4.70884e-17 3.14417e-16 0)
(-2.52913e-16 1.27935e-16 0)
(-1.46638e-16 0 0)
(-4.47457e-17 0 0)
(-2.11831e-16 0 0)
(-4.97243e-19 0 0)
(1.43583e-16 2.1684e-18 0)
(4.68585e-17 0 0)
(9.52105e-17 1.6263e-16 0)
(-1.68234e-16 3.59954e-16 0)
(-3.92045e-16 1.53956e-16 0)
(-3.42621e-16 1.0842e-16 0)
(1.78497e-14 4.96563e-16 0)
(2.29062e-10 -3.01407e-16 0)
(2.75937e-07 2.23345e-16 0)
(4.22543e-05 7.64387e-15 0)
(0.00119479 -4.32599e-15 0)
(0.0095615 1.128e-14 0)
(0.0332863 1.39524e-15 0)
(0.071412 5.62524e-15 0)
(0.11782 -1.18837e-15 0)
(0.168281 5.8831e-15 0)
(0.220869 1.13072e-14 0)
(0.274751 -6.31002e-15 0)
(0.329524 2.79311e-14 0)
(0.384978 9.1359e-15 0)
(0.441008 7.00106e-15 0)
(0.497574 2.86259e-14 0)
(0.554679 1.97749e-14 0)
(0.612347 1.14982e-14 0)
(0.670563 9.93021e-15 0)
(0.729236 1.98421e-14 0)
(0.787844 8.17937e-15 0)
(0.84498 -3.57838e-15 0)
(0.896598 2.57221e-15 0)
(0.931574 9.85505e-15 0)
(0.939088 9.83861e-15 0)
(0.924517 8.49474e-15 0)
(0.926077 1.08952e-14 0)
(0.927282 5.66475e-15 0)
(0.927604 5.43661e-15 0)
(0.927795 2.67178e-15 0)
(0.927808 4.72931e-17 0)
(0.927901 1.88125e-15 0)
(0.928014 4.30118e-15 0)
(0.928063 7.71133e-15 0)
(0.928463 8.64687e-15 0)
(0.929034 4.71216e-15 0)
(0.930236 8.08347e-15 0)
(0.932046 4.7252e-15 0)
(0.927441 2.3947e-16 0)
(0.923773 -3.48689e-16 0)
(0.924684 -4.44045e-16 0)
(0.925882 5.87295e-17 0)
(0.929033 1.86143e-15 0)
(0.930239 -3.11023e-15 0)
(0.925757 -2.78728e-15 0)
(0.889563 -4.69923e-15 0)
(0.703107 -3.95133e-15 0)
(0.249435 -2.87239e-15 0)
(0.012346 3.27396e-15 0)
(4.85654e-05 2.71038e-16 0)
(1.11369e-08 1.12757e-16 0)
(3.12837e-13 5.49689e-16 0)
(5.55403e-17 9.32411e-17 0)
(2.02684e-16 3.79469e-17 0)
(4.43664e-17 1.73472e-17 0)
(-1.31487e-16 9.32411e-17 0)
(7.22205e-17 1.56125e-16 0)
(2.76061e-16 2.02745e-16 0)
(9.19686e-17 2.1684e-17 0)
(-1.75846e-16 0 0)
(-8.9337e-17 0 0)
(-1.03077e-16 0 0)
(-2.17634e-16 8.67359e-18 0)
(-1.5375e-16 6.50519e-18 0)
(-2.67274e-16 1.56125e-16 0)
(-1.50714e-16 2.74302e-16 0)
(3.46212e-17 9.10727e-17 0)
(2.44768e-16 0 0)
(2.16802e-17 1.95156e-17 0)
(-2.16057e-16 2.49366e-16 0)
(-3.23969e-16 2.73218e-16 0)
(-2.40924e-16 1.92987e-16 0)
(-2.19008e-16 2.88397e-16 0)
(0 0 0)
(2.40609e-16 0 0)
(5.29839e-16 0 0)
(1.16248e-16 9.97462e-17 0)
(-3.67372e-16 3.44775e-16 0)
(-3.25009e-16 5.70288e-16 0)
(-3.0595e-16 2.4286e-16 0)
(-2.81145e-17 0 0)
(-8.68628e-20 0 0)
(2.51167e-16 0 0)
(5.77417e-16 0 0)
(2.14263e-16 2.1684e-18 0)
(-1.46439e-16 4.33679e-17 0)
(7.8669e-17 2.64544e-16 0)
(3.17642e-16 1.27935e-16 0)
(-5.11698e-17 7.58939e-17 0)
(-4.16886e-16 0 0)
(-1.69978e-16 0 0)
(-8.45178e-17 1.01915e-16 0)
(-2.47077e-16 0 0)
(-9.36957e-19 0 0)
(2.20883e-16 0 0)
(8.3555e-17 1.0842e-16 0)
(1.70224e-16 4.44521e-16 0)
(-9.62952e-17 7.04729e-16 0)
(-3.95178e-16 4.14164e-16 0)
(-4.40111e-16 8.02307e-17 0)
(1.76338e-14 -5.63783e-17 0)
(2.29062e-10 4.33679e-17 0)
(2.75937e-07 -2.47848e-15 0)
(4.22543e-05 1.27788e-14 0)
(0.00119479 -6.65069e-15 0)
(0.0095615 1.11882e-14 0)
(0.0332863 4.76791e-15 0)
(0.071412 7.10932e-15 0)
(0.11782 -1.71481e-16 0)
(0.168281 8.45382e-15 0)
(0.220869 1.30676e-14 0)
(0.274751 -9.61016e-15 0)
(0.329524 3.05455e-14 0)
(0.384978 1.57605e-15 0)
(0.441008 -4.45914e-15 0)
(0.497574 2.97786e-14 0)
(0.554679 1.84352e-14 0)
(0.612347 1.07527e-14 0)
(0.670563 4.56079e-15 0)
(0.729236 1.91008e-14 0)
(0.787844 7.66512e-15 0)
(0.84498 3.94407e-15 0)
(0.896598 6.94718e-15 0)
(0.931574 5.84387e-15 0)
(0.939088 8.91934e-15 0)
(0.924517 9.12952e-15 0)
(0.926077 1.25124e-14 0)
(0.927282 4.84462e-15 0)
(0.927604 4.10485e-15 0)
(0.927795 1.37232e-15 0)
(0.927808 -1.24624e-17 0)
(0.927901 3.22629e-18 0)
(0.928014 2.61534e-15 0)
(0.928063 5.96656e-15 0)
(0.928463 6.76307e-15 0)
(0.929034 5.79971e-15 0)
(0.930236 9.83987e-15 0)
(0.932046 7.23323e-15 0)
(0.927441 6.52504e-15 0)
(0.923773 3.25975e-15 0)
(0.924684 6.54979e-16 0)
(0.925882 1.83401e-16 0)
(0.929033 3.01545e-15 0)
(0.930239 -1.1908e-15 0)
(0.925757 -3.04963e-16 0)
(0.889563 -8.92152e-16 0)
(0.703107 -1.29399e-15 0)
(0.249435 1.13603e-15 0)
(0.012346 4.70283e-15 0)
(4.85654e-05 5.32318e-16 0)
(1.11369e-08 3.43691e-16 0)
(3.12184e-13 2.5045e-16 0)
(-3.88927e-17 3.48028e-16 0)
(1.62557e-16 3.22007e-16 0)
(1.76877e-16 2.49366e-16 0)
(7.54647e-17 3.80554e-16 0)
(1.8814e-16 3.5887e-16 0)
(1.58977e-16 1.37693e-16 0)
(-1.04491e-17 -6.93887e-17 0)
(-1.50074e-16 1.40946e-17 0)
(-9.4628e-17 1.27935e-16 0)
(-1.60419e-16 2.49366e-17 0)
(-2.62359e-16 1.27935e-16 0)
(-1.25615e-16 1.33356e-16 0)
(-8.53844e-17 3.3827e-16 0)
(-1.44395e-16 4.803e-16 0)
(-2.11096e-17 3.8489e-16 0)
(1.57701e-16 2.0925e-16 0)
(4.42011e-17 7.80623e-17 0)
(-1.73005e-16 2.73218e-16 0)
(-3.79532e-16 4.78131e-16 0)
(-3.2663e-16 3.9248e-16 0)
(-4.2609e-16 4.94394e-16 0)
(-2.1684e-18 -2.1684e-18 0)
(2.8007e-16 -2.1684e-18 0)
(6.14237e-16 -2.1684e-18 0)
(2.0733e-16 3.90311e-17 0)
(-2.86548e-16 2.86228e-16 0)
(-6.70265e-16 1.92987e-16 0)
(-3.51541e-16 -2.1684e-18 0)
(-2.01608e-17 -2.1684e-18 0)
(-1.77695e-18 0 0)
(1.27108e-16 0 0)
(3.95246e-16 -4.33679e-18 0)
(2.13058e-16 -1.36609e-16 0)
(1.67963e-16 2.25513e-16 0)
(2.01419e-16 5.83299e-16 0)
(2.58165e-16 3.07912e-16 0)
(-5.42389e-17 0 0)
(-3.47803e-16 -2.1684e-18 0)
(-9.94921e-17 1.17093e-16 0)
(-9.47912e-17 3.5128e-16 0)
(-2.27372e-16 1.73472e-16 0)
(4.45807e-18 0 0)
(2.39748e-16 1.82145e-16 0)
(1.02971e-16 3.68627e-16 0)
(2.72015e-16 1.84314e-16 0)
(-9.36166e-17 2.75386e-16 0)
(-5.07407e-16 1.40946e-16 0)
(-5.25611e-16 -4.33679e-18 0)
(1.71843e-14 1.64798e-16 0)
(2.29064e-10 2.41559e-15 0)
(2.75937e-07 -2.28332e-15 0)
(4.22543e-05 7.9995e-15 0)
(0.00119479 1.21119e-15 0)
(0.0095615 2.88995e-15 0)
(0.0332863 7.47808e-15 0)
(0.071412 3.34956e-15 0)
(0.11782 1.90907e-15 0)
(0.168281 7.38769e-15 0)
(0.220869 1.70435e-14 0)
(0.274751 -1.28388e-14 0)
(0.329524 2.8792e-14 0)
(0.384978 1.67322e-15 0)
(0.441008 -9.34966e-15 0)
(0.497574 2.87689e-14 0)
(0.554679 1.8334e-14 0)
(0.612347 8.90301e-15 0)
(0.670563 4.08769e-15 0)
(0.729236 1.46206e-14 0)
(0.787844 7.02783e-15 0)
(0.84498 4.53246e-15 0)
(0.896598 4.65365e-15 0)
(0.931574 2.25037e-15 0)
(0.939088 9.72282e-15 0)
(0.924517 1.19315e-14 0)
(0.926077 9.34801e-15 0)
(0.927282 5.54795e-15 0)
(0.927604 3.15518e-15 0)
(0.927795 1.73155e-15 0)
(0.927808 9.62479e-16 0)
(0.927901 -1.28987e-15 0)
(0.928014 1.67663e-15 0)
(0.928063 3.84643e-15 0)
(0.928463 4.78231e-15 0)
(0.929034 7.61322e-15 0)
(0.930236 1.01058e-14 0)
(0.932046 4.89486e-15 0)
(0.927441 4.65292e-15 0)
(0.923773 4.33569e-15 0)
(0.924684 2.27953e-15 0)
(0.925882 1.54654e-15 0)
(0.929033 1.80239e-15 0)
(0.930239 3.47403e-16 0)
(0.925757 1.53149e-15 0)
(0.889563 1.3042e-15 0)
(0.703107 -3.192e-16 0)
(0.249435 6.39027e-15 0)
(0.012346 6.13599e-16 0)
(4.85654e-05 1.92111e-15 0)
(1.11369e-08 8.84706e-16 0)
(3.12815e-13 3.52364e-16 0)
(3.20507e-17 5.89804e-16 0)
(1.90212e-16 6.36424e-16 0)
(3.31378e-16 4.94394e-16 0)
(2.63223e-16 6.03898e-16 0)
(4.26443e-17 4.83552e-16 0)
(-1.46485e-16 2.73218e-16 0)
(-2.85637e-17 1.49619e-16 0)
(2.04367e-17 1.85398e-16 0)
(-1.484e-16 1.92987e-16 0)
(-2.62296e-16 3.79469e-17 0)
(-1.60093e-16 1.40946e-16 0)
(-5.73614e-17 3.79469e-17 0)
(3.64596e-17 1.73472e-16 0)
(-1.61639e-16 3.72964e-16 0)
(-1.96133e-16 5.86551e-16 0)
(-5.98294e-17 4.62953e-16 0)
(-1.37923e-16 2.80807e-16 0)
(-6.16965e-17 1.6263e-16 0)
(-2.35702e-16 2.79723e-16 0)
(-4.61133e-16 2.08166e-16 0)
(-6.60277e-16 2.66713e-16 0)
(-2.1684e-18 2.1684e-18 0)
(2.64756e-16 2.1684e-18 0)
(5.94555e-16 2.1684e-18 0)
(1.80159e-16 1.66967e-16 0)
(-5.57998e-16 -1.56125e-16 0)
(-6.26437e-16 -5.44268e-16 0)
(-2.91643e-16 -2.40692e-16 0)
(-6.06754e-18 2.1684e-18 0)
(-1.31312e-17 0 0)
(1.45775e-16 -2.1684e-18 0)
(4.08898e-16 4.33679e-17 0)
(2.26416e-16 1.92987e-16 0)
(4.07705e-16 4.77047e-17 0)
(2.25077e-16 2.2985e-16 0)
(2.75349e-16 4.55363e-17 0)
(-5.45821e-17 9.32411e-17 0)
(-3.8724e-16 2.1684e-18 0)
(-1.17386e-16 2.1684e-18 0)
(-9.63384e-17 -1.51788e-17 0)
(-2.78357e-16 0 0)
(5.45148e-17 0 0)
(3.29797e-16 2.60208e-16 0)
(7.36211e-17 3.46943e-17 0)
(-2.11113e-17 -6.93887e-17 0)
(-4.91597e-17 -3.33933e-16 0)
(-2.42002e-16 -1.40946e-16 0)
(-2.36694e-16 -1.19262e-16 0)
(1.81917e-14 1.7564e-16 0)
(2.29067e-10 4.26307e-15 0)
(2.75937e-07 -5.44051e-15 0)
(4.22543e-05 -2.51326e-15 0)
(0.00119479 6.362e-15 0)
(0.0095615 -4.37208e-15 0)
(0.0332863 7.84836e-15 0)
(0.071412 -2.53608e-15 0)
(0.11782 4.97894e-15 0)
(0.168281 2.02576e-15 0)
(0.220869 2.06521e-14 0)
(0.274751 -1.35238e-14 0)
(0.329524 2.4723e-14 0)
(0.384978 5.64977e-15 0)
(0.441008 -1.22287e-14 0)
(0.497574 2.57195e-14 0)
(0.554679 1.55783e-14 0)
(0.612347 7.0842e-15 0)
(0.670563 3.30479e-15 0)
(0.729236 9.2075e-15 0)
(0.787844 5.91952e-15 0)
(0.84498 2.96186e-15 0)
(0.896598 5.28992e-15 0)
(0.931574 3.01253e-15 0)
(0.939088 4.47157e-15 0)
(0.924517 7.11337e-15 0)
(0.926077 2.80868e-15 0)
(0.927282 4.96522e-15 0)
(0.927604 3.16407e-15 0)
(0.927795 1.34401e-15 0)
(0.927808 1.68817e-15 0)
(0.927901 -3.25726e-15 0)
(0.928014 -5.75334e-16 0)
(0.928063 2.62553e-15 0)
(0.928463 2.83301e-15 0)
(0.929034 8.00661e-15 0)
(0.930236 5.132e-15 0)
(0.932046 3.94914e-15 0)
(0.927441 -9.26931e-16 0)
(0.923773 4.66841e-15 0)
(0.924684 3.66169e-15 0)
(0.925882 1.50688e-15 0)
(0.929033 2.40712e-15 0)
(0.930239 -2.01883e-16 0)
(0.925757 2.25693e-15 0)
(0.889563 3.84612e-16 0)
(0.703107 -1.80901e-15 0)
(0.249435 1.15409e-14 0)
(0.012346 -4.82727e-15 0)
(4.85654e-05 5.48363e-15 0)
(1.11369e-08 -9.32411e-17 0)
(3.12526e-13 6.37509e-16 0)
(1.23605e-16 5.97393e-16 0)
(9.89283e-17 7.29665e-16 0)
(2.04352e-16 6.12572e-16 0)
(6.772e-17 4.07659e-16 0)
(-1.31964e-16 2.93818e-16 0)
(-1.4894e-16 3.95732e-16 0)
(-3.33025e-17 3.97901e-16 0)
(-1.72497e-17 3.64291e-16 0)
(-3.46389e-16 2.20092e-16 0)
(-4.94144e-16 1.78893e-16 0)
(-3.30858e-16 -3.14417e-17 0)
(-1.31886e-17 -1.36609e-16 0)
(2.2427e-16 -1.18178e-16 0)
(8.6594e-17 1.95156e-17 0)
(4.09741e-17 3.77301e-16 0)
(3.59952e-17 6.24498e-16 0)
(-1.80034e-16 4.9331e-16 0)
(-2.86416e-16 1.16009e-16 0)
(-4.11565e-16 -1.35525e-16 0)
(-5.98346e-16 -7.91465e-17 0)
(-7.6436e-16 -1.94071e-16 0)
(0 0 0)
(1.31106e-16 0 0)
(2.84575e-16 -1.30104e-16 0)
(-1.07215e-16 -3.94648e-16 0)
(-6.46197e-16 -5.59446e-16 0)
(-3.27452e-16 -2.45029e-16 0)
(-8.51617e-17 -2.1684e-17 0)
(2.82937e-17 0 0)
(-3.97227e-17 0 0)
(1.62212e-16 1.30104e-17 0)
(4.21176e-16 2.68881e-16 0)
(2.28815e-16 4.53195e-16 0)
(-2.88539e-17 1.95156e-16 0)
(8.62844e-17 -1.10588e-16 0)
(3.06512e-16 -6.50519e-17 0)
(-5.24529e-17 -9.54094e-17 0)
(-4.04184e-16 0 0)
(-1.5207e-16 -9.97462e-17 0)
(-2.43168e-17 -3.77301e-16 0)
(-2.71073e-17 -1.36609e-16 0)
(2.28589e-16 0 0)
(5.64834e-17 1.73472e-17 0)
(-1.85234e-16 -2.25513e-16 0)
(-1.89885e-17 -4.33679e-17 0)
(6.04521e-19 -1.14925e-16 0)
(-8.28964e-18 0 0)
(-3.48636e-17 1.23599e-16 0)
(1.78562e-14 -1.53956e-16 0)
(2.29071e-10 1.42464e-15 0)
(2.75937e-07 -3.03576e-17 0)
(4.22543e-05 -1.06082e-14 0)
(0.00119479 7.86188e-15 0)
(0.0095615 -5.67933e-15 0)
(0.0332863 6.40293e-15 0)
(0.071412 -6.49172e-15 0)
(0.11782 8.6436e-15 0)
(0.168281 -1.03856e-15 0)
(0.220869 1.95384e-14 0)
(0.274751 -1.33285e-14 0)
(0.329524 1.93945e-14 0)
(0.384978 7.15142e-15 0)
(0.441008 -1.29892e-14 0)
(0.497574 1.92303e-14 0)
(0.554679 1.20151e-14 0)
(0.612347 5.26257e-15 0)
(0.670563 6.30474e-16 0)
(0.729236 7.63068e-15 0)
(0.787844 5.86078e-15 0)
(0.84498 3.03453e-15 0)
(0.896598 6.42312e-15 0)
(0.931574 3.34456e-15 0)
(0.939088 2.64428e-15 0)
(0.924517 1.74722e-15 0)
(0.926077 1.24091e-15 0)
(0.927282 3.2637e-15 0)
(0.927604 1.42132e-15 0)
(0.927795 -1.06337e-15 0)
(0.927808 2.46372e-16 0)
(0.927901 -6.60131e-15 0)
(0.928014 -3.16763e-15 0)
(0.928063 4.26696e-16 0)
(0.928463 3.62634e-16 0)
(0.929034 5.53557e-15 0)
(0.930236 1.39976e-15 0)
(0.932046 3.43532e-15 0)
(0.927441 -2.34244e-15 0)
(0.923773 3.76553e-15 0)
(0.924684 2.10934e-15 0)
(0.925882 -6.6354e-16 0)
(0.929033 1.93278e-15 0)
(0.930239 3.76097e-16 0)
(0.925757 2.04746e-15 0)
(0.889563 8.72631e-16 0)
(0.703107 -3.02933e-15 0)
(0.249435 9.24318e-15 0)
(0.012346 -4.48829e-15 0)
(4.85654e-05 3.84982e-15 0)
(1.11369e-08 -4.75963e-16 0)
(3.12727e-13 -8.34833e-17 0)
(1.55296e-16 3.44775e-16 0)
(5.25378e-17 4.597e-16 0)
(1.58294e-17 4.00069e-16 0)
(-5.30945e-17 1.60461e-16 0)
(-1.72215e-16 4.66205e-17 0)
(1.78262e-17 2.23345e-16 0)
(1.33385e-16 4.31511e-16 0)
(-5.59335e-17 2.05998e-16 0)
(-4.36468e-16 5.31257e-17 0)
(-6.862e-16 8.89043e-17 0)
(-5.10526e-16 -8.78201e-17 0)
(-1.66835e-16 4.33679e-18 0)
(8.54487e-17 -2.56955e-16 0)
(3.402e-16 -2.0925e-16 0)
(3.41359e-16 7.80623e-17 0)
(1.05477e-16 3.74048e-16 0)
(-2.60669e-16 2.80807e-16 0)
(-5.2152e-16 -7.69781e-17 0)
(-5.53481e-16 -3.08997e-16 0)
(-4.51033e-16 -2.51534e-16 0)
(-5.39931e-16 -3.53449e-16 0)
(0 0 0)
(1.42667e-16 -7.80623e-17 0)
(-2.53384e-17 -4.40184e-16 0)
(-7.8085e-17 -8.08812e-16 0)
(-2.97178e-16 -5.18247e-16 0)
(-1.03634e-16 -9.97462e-17 0)
(1.39184e-16 0 0)
(9.05735e-17 0 0)
(-5.78973e-17 0 0)
(1.58048e-16 0 0)
(4.13628e-16 4.98731e-17 0)
(1.20159e-17 2.03829e-16 0)
(-3.32849e-16 0 0)
(-4.44896e-17 -5.20415e-17 0)
(2.04247e-16 0 0)
(2.53817e-17 -9.32411e-17 0)
(-2.3765e-16 0 0)
(-1.8417e-16 0 0)
(-3.35957e-17 -1.17093e-16 0)
(6.70456e-18 0 0)
(2.16885e-16 0 0)
(1.62976e-18 -9.32411e-17 0)
(-1.71184e-16 -4.55363e-17 0)
(-2.17068e-17 0 0)
(-7.08659e-19 0 0)
(-2.10182e-17 0 0)
(9.48694e-18 0 0)
(1.78532e-14 4.33679e-18 0)
(2.29072e-10 1.49619e-16 0)
(2.75937e-07 2.89481e-15 0)
(4.22543e-05 -1.14929e-14 0)
(0.00119479 9.44641e-15 0)
(0.0095615 -1.37939e-15 0)
(0.0332863 5.54081e-15 0)
(0.071412 -7.36627e-15 0)
(0.11782 1.1229e-14 0)
(0.168281 -2.95909e-15 0)
(0.220869 1.52674e-14 0)
(0.274751 -1.13311e-14 0)
(0.329524 1.35575e-14 0)
(0.384978 5.25045e-15 0)
(0.441008 -9.53818e-15 0)
(0.497574 1.17852e-14 0)
(0.554679 9.37109e-15 0)
(0.612347 3.42971e-15 0)
(0.670563 7.51224e-16 0)
(0.729236 8.93946e-15 0)
(0.787844 2.96475e-15 0)
(0.84498 2.36058e-15 0)
(0.896598 3.02105e-15 0)
(0.931574 5.2399e-15 0)
(0.939088 4.52529e-15 0)
(0.924517 1.16914e-15 0)
(0.926077 2.13306e-15 0)
(0.927282 3.29671e-15 0)
(0.927604 2.79501e-16 0)
(0.927795 -8.65458e-16 0)
(0.927808 -1.59295e-15 0)
(0.927901 -3.84219e-15 0)
(0.928014 -2.67359e-15 0)
(0.928063 -3.43889e-16 0)
(0.928463 -9.38604e-16 0)
(0.929034 1.45315e-15 0)
(0.930236 7.70045e-16 0)
(0.932046 6.62149e-16 0)
(0.927441 -1.0284e-15 0)
(0.923773 1.7898e-15 0)
(0.924684 8.52504e-16 0)
(0.925882 -1.84946e-16 0)
(0.929033 6.07299e-16 0)
(0.930239 4.93948e-16 0)
(0.925757 8.1272e-16 0)
(0.889563 1.33005e-15 0)
(0.703107 -8.34217e-16 0)
(0.249435 2.82635e-15 0)
(0.012346 -8.95726e-16 0)
(4.85654e-05 6.48322e-16 0)
(1.11369e-08 -1.92987e-16 0)
(3.13315e-13 -1.73472e-17 0)
(1.90535e-16 0 0)
(8.89738e-17 0 0)
(2.69608e-18 0 0)
(-9.82042e-18 0 0)
(-1.24689e-16 0 0)
(7.09816e-17 5.09573e-17 0)
(2.1418e-16 2.23345e-16 0)
(7.21007e-18 1.95156e-17 0)
(-3.95761e-16 0 0)
(-6.56861e-16 0 0)
(-4.70225e-16 0 0)
(-2.94631e-16 -1.6263e-17 0)
(4.69725e-17 -9.97462e-17 0)
(3.72511e-16 -9.8662e-17 0)
(4.35571e-16 0 0)
(1.62324e-16 0 0)
(-2.90952e-16 2.81892e-17 0)
(-5.62436e-16 5.85467e-17 0)
(-4.95483e-16 -1.0083e-16 0)
(-3.74634e-16 -6.07151e-17 0)
(-3.35017e-16 -1.45283e-16 0)
(2.47197e-16 1.99492e-16 0)
(2.28526e-16 0 0)
(-1.09943e-16 -1.79977e-16 0)
(-9.4204e-17 -4.64037e-16 0)
(-1.98456e-17 -1.69135e-16 0)
(7.62916e-17 0 0)
(3.52462e-16 1.27935e-16 0)
(1.42778e-16 3.25259e-16 0)
(-4.97138e-17 1.92987e-16 0)
(1.93791e-16 -2.1684e-18 0)
(4.30449e-16 0 0)
(6.26174e-17 0 0)
(-3.08282e-16 0 0)
(-1.779e-17 -7.37255e-17 0)
(2.19109e-16 0 0)
(2.0715e-17 9.32411e-17 0)
(-2.65325e-16 8.45675e-17 0)
(-3.01426e-16 0 0)
(-7.27501e-17 0 0)
(4.55677e-17 0 0)
(2.23814e-16 0 0)
(2.36632e-18 9.32411e-17 0)
(-2.15134e-16 0 0)
(-4.11879e-17 0 0)
(-2.01027e-17 0 0)
(-6.6055e-17 0 0)
(-7.88985e-18 0 0)
(1.78416e-14 4.33679e-18 0)
(2.29072e-10 -4.48858e-16 0)
(2.75937e-07 -3.72964e-16 0)
(4.22543e-05 -8.54379e-16 0)
(0.00119479 -7.46683e-16 0)
(0.0095615 7.99435e-15 0)
(0.0332863 3.99054e-15 0)
(0.071412 -8.12675e-15 0)
(0.11782 1.47078e-14 0)
(0.168281 -5.40578e-15 0)
(0.220869 1.01975e-14 0)
(0.274751 -7.69666e-15 0)
(0.329524 9.52462e-15 0)
(0.384978 2.35951e-15 0)
(0.441008 -5.67977e-15 0)
(0.497574 5.8598e-15 0)
(0.554679 5.14247e-15 0)
(0.612347 3.13001e-15 0)
(0.670563 -2.47933e-15 0)
(0.729236 6.35227e-15 0)
(0.787844 -7.96879e-16 0)
(0.84498 2.96186e-15 0)
(0.896598 4.38853e-15 0)
(0.931574 6.66995e-15 0)
(0.939088 4.06372e-15 0)
(0.924517 1.40988e-15 0)
(0.926077 1.84994e-15 0)
(0.927282 -1.14196e-15 0)
(0.927604 -2.38814e-15 0)
(0.927795 -8.03094e-16 0)
(0.927808 -2.10007e-15 0)
(0.927901 -2.39778e-15 0)
(0.928014 -9.56806e-16 0)
(0.928063 -9.27646e-16 0)
(0.928463 -1.06595e-15 0)
(0.929034 -8.81794e-16 0)
(0.930236 9.54177e-16 0)
(0.932046 -1.12168e-15 0)
(0.927441 1.55757e-16 0)
(0.923773 -1.44729e-16 0)
(0.924684 6.9108e-16 0)
(0.925882 1.6434e-16 0)
(0.929033 -8.24449e-16 0)
(0.930239 -2.47691e-15 0)
(0.925757 -1.11922e-15 0)
(0.889563 -2.20532e-16 0)
(0.703107 8.42197e-16 0)
(0.249435 -1.67349e-15 0)
(0.012346 1.18751e-15 0)
(4.85654e-05 -9.77903e-16 0)
(1.11369e-08 -3.69712e-16 0)
(3.12768e-13 1.43114e-16 0)
(-4.25575e-17 -2.45029e-16 0)
(5.13439e-19 -3.44775e-16 0)
(8.35861e-17 -3.01407e-16 0)
(2.26183e-16 -2.62376e-16 0)
(1.10597e-16 -1.25767e-16 0)
(1.72354e-16 2.92734e-17 0)
(1.27647e-16 3.57785e-17 0)
(-1.27199e-17 0 0)
(-3.55915e-16 0 0)
(-5.95433e-16 6.61361e-17 0)
(-5.67043e-16 1.69135e-16 0)
(-3.61739e-16 -3.46943e-17 0)
(7.05398e-17 -1.0842e-18 0)
(4.38754e-16 0 0)
(5.19202e-16 -1.31188e-16 0)
(3.25037e-16 -2.59123e-16 0)
(-4.76118e-17 -4.01153e-17 0)
(-4.59882e-16 2.27682e-16 0)
(-6.79324e-16 1.33356e-16 0)
(-5.43829e-16 2.36355e-16 0)
(-4.4669e-16 2.02745e-16 0)
(5.91972e-16 4.79216e-16 0)
(3.38375e-16 1.84314e-16 0)
(-1.39009e-16 1.49619e-16 0)
(-2.7861e-16 -1.6263e-16 0)
(-7.0802e-17 2.1684e-18 0)
(2.67248e-16 3.25259e-17 0)
(4.23409e-16 4.11995e-16 0)
(1.59648e-16 6.74371e-16 0)
(-2.69178e-17 4.90058e-16 0)
(2.27675e-16 2.32018e-16 0)
(3.45255e-16 1.36609e-16 0)
(8.14074e-17 -1.36609e-16 0)
(-2.23012e-16 -7.80623e-17 0)
(-1.06383e-17 -2.66713e-16 0)
(2.25859e-16 -6.28835e-17 0)
(-7.14743e-18 3.68627e-17 0)
(-2.93495e-16 3.27428e-16 0)
(-4.24562e-16 1.47451e-16 0)
(-1.44943e-16 0 0)
(6.45615e-17 0 0)
(2.21391e-16 0 0)
(7.07799e-18 -3.03576e-17 0)
(-2.52844e-16 0 0)
(-7.23869e-17 0 0)
(-1.03404e-16 0 0)
(-1.61988e-16 0 0)
(-5.80111e-17 0 0)
(1.77938e-14 -8.02307e-17 0)
(2.2907e-10 -2.33319e-15 0)
(2.75937e-07 -4.16549e-15 0)
(4.22543e-05 8.34429e-15 0)
(0.00119479 -7.67738e-15 0)
(0.0095615 1.826e-14 0)
(0.0332863 6.62488e-16 0)
(0.071412 -7.28446e-15 0)
(0.11782 1.74323e-14 0)
(0.168281 -6.33159e-15 0)
(0.220869 4.05198e-15 0)
(0.274751 -3.58352e-15 0)
(0.329524 6.42197e-15 0)
(0.384978 -9.44413e-16 0)
(0.441008 -2.17285e-16 0)
(0.497574 6.83251e-16 0)
(0.554679 5.83808e-16 0)
(0.612347 2.0951e-15 0)
(0.670563 -4.63304e-15 0)
(0.729236 4.87807e-15 0)
(0.787844 -1.80434e-15 0)
(0.84498 2.47896e-15 0)
(0.896598 5.47735e-15 0)
(0.931574 5.05615e-15 0)
(0.939088 3.73499e-15 0)
(0.924517 1.14412e-15 0)
(0.926077 1.66796e-15 0)
(0.927282 -3.53348e-15 0)
(0.927604 -4.4393e-15 0)
(0.927795 -7.94822e-16 0)
(0.927808 -2.24962e-15 0)
(0.927901 -1.78607e-15 0)
(0.928014 4.44666e-16 0)
(0.928063 -1.54357e-15 0)
(0.928463 -4.2411e-16 0)
(0.929034 -2.1465e-15 0)
(0.930236 5.43456e-16 0)
(0.932046 -2.06352e-15 0)
(0.927441 2.13138e-15 0)
(0.923773 -2.17299e-15 0)
(0.924684 -4.80146e-16 0)
(0.925882 2.06068e-17 0)
(0.929033 -2.93742e-15 0)
(0.930239 -3.05746e-15 0)
(0.925757 -2.40582e-15 0)
(0.889563 -1.44032e-15 0)
(0.703107 2.95015e-15 0)
(0.249435 -5.71821e-15 0)
(0.012346 3.08087e-15 0)
(4.85654e-05 -3.51265e-15 0)
(1.11369e-08 -5.56194e-16 0)
(3.12563e-13 -9.75778e-17 0)
(-1.29028e-16 -4.74879e-16 0)
(-2.72858e-18 -5.91972e-16 0)
(1.249e-16 -5.3451e-16 0)
(2.95921e-16 -4.97647e-16 0)
(1.80768e-16 -3.22007e-16 0)
(2.19939e-16 -1.22514e-16 0)
(1.69805e-16 0 0)
(3.12408e-17 0 0)
(-1.17042e-16 -6.72203e-17 0)
(-3.98969e-16 1.45283e-16 0)
(-6.02631e-16 3.64291e-16 0)
(-3.68531e-16 1.64798e-16 0)
(4.27694e-17 3.14417e-17 0)
(3.90378e-16 9.10727e-17 0)
(5.42558e-16 -3.11165e-16 0)
(3.66355e-16 -4.85721e-16 0)
(1.09628e-16 -2.28766e-16 0)
(-3.7244e-16 7.58939e-17 0)
(-6.58268e-16 3.40438e-16 0)
(-5.6456e-16 4.73795e-16 0)
(-6.66782e-16 4.25006e-16 0)
(8.15317e-16 2.49366e-16 0)
(4.14893e-16 1.04083e-16 0)
(-1.37959e-16 1.32272e-16 0)
(-3.22507e-16 2.14671e-16 0)
(1.79294e-17 1.01915e-16 0)
(4.05887e-16 2.64544e-16 0)
(6.07827e-16 2.34187e-16 0)
(2.36781e-16 3.57785e-16 0)
(-2.11355e-16 3.10081e-16 0)
(2.84847e-16 2.90565e-16 0)
(-1.27545e-17 -8.67359e-18 0)
(-1.40634e-16 -2.53702e-16 0)
(-2.06135e-16 -1.0842e-17 0)
(-3.25162e-17 9.75778e-17 0)
(2.43547e-16 1.0842e-17 0)
(1.90749e-16 -1.6263e-16 0)
(-1.38888e-16 1.19262e-16 0)
(-5.07526e-16 2.34187e-16 0)
(-2.13897e-16 8.89043e-17 0)
(6.52199e-17 1.92987e-16 0)
(-1.66907e-16 4.11995e-17 0)
(-9.87198e-17 -2.01661e-16 0)
(1.27021e-16 3.25259e-17 0)
(1.3178e-17 2.60208e-16 0)
(-2.47729e-16 1.2143e-16 0)
(-3.41915e-16 2.38524e-17 0)
(-1.58502e-16 0 0)
(1.75183e-14 5.63783e-17 0)
(2.29067e-10 -1.5027e-15 0)
(2.75937e-07 -5.15428e-15 0)
(4.22543e-05 1.10158e-14 0)
(0.00119479 -9.16857e-15 0)
(0.0095615 1.6944e-14 0)
(0.0332863 9.92617e-17 0)
(0.071412 -8.50699e-15 0)
(0.11782 1.62811e-14 0)
(0.168281 -6.59217e-15 0)
(0.220869 -1.40357e-15 0)
(0.274751 -2.23127e-15 0)
(0.329524 4.71031e-15 0)
(0.384978 -3.57116e-15 0)
(0.441008 5.85711e-15 0)
(0.497574 -3.02583e-15 0)
(0.554679 -1.71948e-15 0)
(0.612347 5.404e-16 0)
(0.670563 -4.1253e-15 0)
(0.729236 1.99562e-15 0)
(0.787844 -1.12827e-15 0)
(0.84498 1.7511e-15 0)
(0.896598 -5.06796e-16 0)
(0.931574 6.62393e-15 0)
(0.939088 4.68289e-15 0)
(0.924517 1.86125e-15 0)
(0.926077 2.39367e-16 0)
(0.927282 -2.18617e-15 0)
(0.927604 -3.47153e-15 0)
(0.927795 -8.86777e-16 0)
(0.927808 -3.16289e-15 0)
(0.927901 -1.10984e-15 0)
(0.928014 -1.71152e-16 0)
(0.928063 -8.08225e-16 0)
(0.928463 -4.56312e-16 0)
(0.929034 -3.20667e-15 0)
(0.930236 -2.11394e-16 0)
(0.932046 -2.334e-15 0)
(0.927441 2.95735e-15 0)
(0.923773 -2.67723e-15 0)
(0.924684 -2.45849e-15 0)
(0.925882 -2.5707e-16 0)
(0.929033 -3.29574e-15 0)
(0.930239 -3.31519e-15 0)
(0.925757 -3.13999e-15 0)
(0.889563 -2.44379e-15 0)
(0.703107 1.63099e-15 0)
(0.249435 -4.99038e-15 0)
(0.012346 3.34691e-15 0)
(4.85654e-05 -2.05121e-15 0)
(1.11369e-08 2.02745e-16 0)
(3.12232e-13 -1.0842e-16 0)
(-1.86275e-16 -2.45029e-16 0)
(-1.44281e-17 -3.14417e-16 0)
(1.63124e-16 -2.91649e-16 0)
(3.57801e-16 -2.78639e-16 0)
(2.56366e-16 -2.79723e-16 0)
(2.84096e-16 -1.16009e-16 0)
(2.03324e-16 0 0)
(5.45606e-17 -9.43252e-17 0)
(6.80548e-17 -2.39608e-16 0)
(-1.28214e-16 -8.67359e-18 0)
(-3.63525e-16 2.32018e-16 0)
(-2.81734e-16 3.55617e-16 0)
(-7.94224e-17 1.57209e-16 0)
(1.94752e-16 4.77047e-17 0)
(2.84451e-16 -1.51788e-16 0)
(4.70872e-16 -2.76471e-16 0)
(2.31211e-16 -1.26851e-16 0)
(-2.07818e-16 -1.05167e-16 0)
(-4.98543e-16 1.79977e-16 0)
(-6.32377e-16 2.75386e-16 0)
(-8.15317e-16 2.90565e-16 0)
(6.00646e-16 -2.1684e-18 0)
(2.86915e-16 2.55871e-16 0)
(-7.17733e-17 3.14417e-16 0)
(-3.77127e-17 4.98731e-16 0)
(2.02194e-16 3.62122e-16 0)
(4.32536e-16 5.8113e-16 0)
(4.24228e-16 3.46943e-16 0)
(1.33276e-16 8.23991e-17 0)
(-1.25141e-17 1.97324e-16 0)
(-8.00546e-17 -7.80623e-17 0)
(-3.25609e-16 -3.27428e-16 0)
(-7.44125e-17 -8.02307e-17 0)
(-2.10177e-16 2.25513e-16 0)
(1.09622e-17 4.66205e-16 0)
(2.31412e-16 2.49366e-16 0)
(8.96043e-17 1.95156e-17 0)
(-5.6446e-17 1.30104e-16 0)
(-3.26728e-16 4.03322e-16 0)
(-9.19572e-17 2.9707e-16 0)
(7.14938e-17 4.81384e-16 0)
(-1.65034e-16 2.51534e-16 0)
(-1.10889e-16 6.28835e-17 0)
(1.47608e-16 2.68881e-16 0)
(1.42131e-16 5.76793e-16 0)
(-2.13205e-16 3.70796e-16 0)
(-5.82536e-16 2.60208e-16 0)
(-5.11444e-16 2.81892e-17 0)
(1.75974e-14 -1.32272e-16 0)
(2.29067e-10 1.32706e-15 0)
(2.75937e-07 -2.30501e-15 0)
(4.22543e-05 6.90008e-15 0)
(0.00119479 -5.86276e-15 0)
(0.0095615 8.3463e-15 0)
(0.0332863 1.81905e-15 0)
(0.071412 -7.92396e-15 0)
(0.11782 1.1554e-14 0)
(0.168281 -4.49876e-15 0)
(0.220869 -2.57889e-15 0)
(0.274751 8.73526e-16 0)
(0.329524 3.65443e-15 0)
(0.384978 -6.01114e-15 0)
(0.441008 1.07924e-14 0)
(0.497574 -5.31287e-15 0)
(0.554679 -5.89308e-15 0)
(0.612347 -1.47041e-16 0)
(0.670563 -3.02964e-15 0)
(0.729236 -3.08871e-16 0)
(0.787844 -4.05865e-15 0)
(0.84498 1.15802e-15 0)
(0.896598 -2.22571e-15 0)
(0.931574 7.43403e-15 0)
(0.939088 1.7739e-15 0)
(0.924517 -3.29425e-17 0)
(0.926077 -1.45396e-15 0)
(0.927282 -2.08842e-15 0)
(0.927604 -3.4585e-15 0)
(0.927795 -2.94765e-15 0)
(0.927808 -3.25843e-15 0)
(0.927901 2.51005e-16 0)
(0.928014 -1.27475e-15 0)
(0.928063 -8.75977e-17 0)
(0.928463 -9.69708e-16 0)
(0.929034 -1.00702e-15 0)
(0.930236 -1.64914e-16 0)
(0.932046 -3.29281e-15 0)
(0.927441 4.93653e-16 0)
(0.923773 -1.23612e-16 0)
(0.924684 -2.721e-15 0)
(0.925882 -1.30596e-15 0)
(0.929033 -4.70234e-16 0)
(0.930239 -1.13956e-15 0)
(0.925757 -1.05864e-15 0)
(0.889563 -2.7002e-15 0)
(0.703107 -1.17797e-15 0)
(0.249435 -6.9419e-16 0)
(0.012346 3.00149e-15 0)
(4.85654e-05 1.52323e-15 0)
(1.11369e-08 -1.0842e-18 0)
(3.12515e-13 -3.14417e-16 0)
(-4.28277e-18 1.06251e-16 0)
(9.6876e-17 1.70219e-16 0)
(1.59411e-17 6.72203e-17 0)
(1.17757e-16 6.28835e-17 0)
(2.75537e-16 -3.90311e-17 0)
(3.03163e-16 -1.0842e-17 0)
(1.10152e-16 -1.51788e-17 0)
(-5.2611e-17 -1.76724e-16 0)
(7.72884e-17 -5.63783e-17 0)
(9.50065e-17 0 0)
(-7.65103e-17 -1.95156e-17 0)
(-2.20194e-16 1.58293e-16 0)
(-1.31348e-16 5.63783e-17 0)
(4.55032e-17 2.00577e-16 0)
(2.05248e-16 2.47197e-16 0)
(3.33581e-16 9.10727e-17 0)
(1.01381e-16 -1.46367e-16 0)
(-2.71574e-16 -2.47197e-16 0)
(-5.06417e-16 -7.58939e-18 0)
(-5.75468e-16 4.87889e-17 0)
(-7.27497e-16 1.22514e-16 0)
(8.02307e-16 -2.23345e-16 0)
(4.06112e-16 -9.97462e-17 0)
(-6.43821e-17 -3.03576e-17 0)
(-1.11125e-16 2.23345e-16 0)
(2.40485e-16 1.82145e-16 0)
(5.8496e-16 2.9707e-16 0)
(2.36731e-16 -3.90311e-17 0)
(-2.24838e-17 -3.96817e-16 0)
(-2.4425e-16 -2.40692e-16 0)
(-4.48282e-16 -4.4669e-16 0)
(-1.07679e-16 -1.0842e-16 0)
(1.80413e-16 1.8865e-16 0)
(-2.75119e-17 4.55363e-17 0)
(-2.09882e-16 2.47197e-16 0)
(-3.71016e-17 -4.33679e-18 0)
(2.73516e-16 -7.15571e-17 0)
(1.71892e-16 -1.6263e-16 0)
(-1.94597e-17 2.38524e-17 0)
(9.70836e-18 4.33679e-18 0)
(6.20699e-17 5.63783e-17 0)
(-1.22294e-16 -1.19262e-16 0)
(-8.76091e-17 4.33679e-18 0)
(1.47952e-16 8.89043e-17 0)
(4.92817e-17 2.12503e-16 0)