/*--------------------------------*- C++ -*----------------------------------*\
| =========                 |                                                 |
| \\      /  F ield         | OpenFOAM: The Open Source CFD Toolbox           |
|  \\    /   O peration     | Version:  4.1                                   |
|   \\  /    A nd           | Web:      www.OpenFOAM.org                      |
|    \\/     M anipulation  |                                                 |
\*---------------------------------------------------------------------------*/
FoamFile
{
    version     2.0;
    format      ascii;
    class       volVectorField;
    location    "0.12";
    object      U;
}
// * * * * * * * * * * * * * * * * * * * * * * * * * * * * * * * * * * * * * //

dimensions      [0 1 -1 0 0 0 0];

internalField   nonuniform List<vector> 
10000
(
(0 0 0)
(4.65092e-17 0 0)
(1.71298e-16 0 0)
(3.597e-17 1.06251e-16 0)
(-8.41944e-17 0 0)
(-4.61911e-17 0 0)
(-8.42455e-17 0 0)
(-3.70638e-18 0 0)
(5.59847e-32 0 0)
(8.7998e-17 1.10588e-16 0)
(2.88706e-16 0 0)
(-7.53637e-18 -1.47451e-16 0)
(-3.07076e-16 0 0)
(-1.81645e-17 0 0)
(1.64044e-16 0 0)
(1.10443e-18 1.2143e-16 0)
(-1.64507e-16 0 0)
(-2.34612e-17 0 0)
(-2.69919e-19 0 0)
(-1.1365e-17 0 0)
(1.33293e-20 0 0)
(3.86959e-18 9.32411e-17 0)
(3.02939e-18 0 0)
(5.54506e-17 0 0)
(-4.60086e-18 0 0)
(-8.21679e-17 0 0)
(-2.8014e-16 -1.17093e-16 0)
(-1.07666e-17 8.23991e-17 0)
(2.59769e-16 0 0)
(1.92965e-17 1.32272e-16 0)
(-1.59389e-16 0 0)
(-3.82604e-21 -1.04083e-16 0)
(8.07528e-17 -2.1684e-18 0)
(-1.00912e-16 0 0)
(3.83312e-18 8.23991e-17 0)
(-1.17603e-16 3.44775e-16 0)
(1.36298e-15 1.23599e-16 0)
(2.90217e-11 -1.0842e-16 0)
(8.49241e-08 -1.32923e-15 0)
(2.63187e-05 5.88733e-15 0)
(0.00124416 -1.1179e-15 0)
(0.0138227 7.17883e-15 0)
(0.0575711 4.48365e-15 0)
(0.134805 1.72392e-15 0)
(0.232013 1.02875e-15 0)
(0.339008 -8.92716e-15 0)
(0.451141 -5.67255e-15 0)
(0.567619 5.7779e-15 0)
(0.687846 3.69892e-15 0)
(0.811834 -5.09763e-15 0)
(0.910375 2.52471e-15 0)
(0.949208 4.38144e-15 0)
(0.923649 5.00912e-15 0)
(0.926393 5.90891e-15 0)
(0.93092 3.57637e-15 0)
(0.933131 1.90608e-15 0)
(0.937845 1.25568e-15 0)
(0.957976 4.68229e-16 0)
(0.948702 -5.77298e-16 0)
(0.870789 -6.04782e-16 0)
(0.57027 1.15119e-16 0)
(0.112487 2.33548e-15 0)
(0.00230835 -2.78074e-16 0)
(3.43576e-06 1.40945e-16 0)
(2.6918e-10 -1.43548e-15 0)
(6.72406e-15 -5.63783e-17 0)
(-5.68082e-17 0 0)
(2.05643e-19 0 0)
(1.12423e-16 0 0)
(2.80301e-16 0 0)
(7.30512e-17 0 0)
(-1.32797e-16 0 0)
(5.52449e-18 1.37693e-16 0)
(-5.98189e-17 3.90311e-16 0)
(-1.73397e-16 1.69135e-16 0)
(3.96086e-17 0 0)
(2.47121e-16 0 0)
(4.58193e-17 0 0)
(-1.44361e-16 9.54094e-17 0)
(4.36898e-17 0 0)
(2.44723e-16 0 0)
(3.98788e-17 0 0)
(-1.63442e-16 0 0)
(3.93097e-17 0 0)
(2.35899e-16 7.37255e-17 0)
(7.15097e-17 0 0)
(-1.25718e-16 0 0)
(-1.7246e-17 0 0)
(-1.05339e-17 0 0)
(-6.55724e-17 0 0)
(-1.37805e-16 -6.50519e-18 0)
(-2.87823e-16 0 0)
(-1.00266e-16 0 0)
(5.96177e-17 0 0)
(2.4097e-16 0 0)
(3.92942e-17 0 0)
(-1.54983e-16 8.45675e-17 0)
(-9.33914e-17 0 0)
(-1.74414e-17 0 0)
(0 0 0)
(0 0 0)
(1.12369e-16 0 0)
(2.38587e-16 1.10588e-16 0)
(5.2608e-17 2.92734e-16 0)
(-1.34917e-16 1.10588e-16 0)
(-1.47819e-16 2.10334e-16 0)
(-2.01185e-16 2.81892e-17 0)
(-2.20523e-17 0 0)
(-2.47291e-29 0 0)
(9.46577e-17 0 0)
(3.27809e-16 0 0)
(1.67311e-17 0 0)
(-2.8152e-16 0 0)
(3.00708e-18 0 0)
(1.77969e-16 1.23599e-16 0)
(-8.52209e-18 3.05744e-16 0)
(-1.95223e-16 1.23599e-16 0)
(-6.13576e-17 0 0)
(-3.86024e-18 0 0)
(-6.29791e-17 0 0)
(2.04584e-19 0 0)
(1.5926e-17 2.1684e-18 0)
(1.19915e-17 0 0)
(1.31939e-16 4.11995e-17 0)
(-2.6606e-17 1.86482e-16 0)
(-2.14179e-16 0 0)
(-1.8061e-16 6.72203e-17 0)
(-3.39163e-18 2.66713e-16 0)
(1.50549e-16 8.45675e-17 0)
(2.18989e-17 0 0)
(-1.78581e-16 0 0)
(-3.93777e-20 4.77047e-17 0)
(1.78581e-16 -3.90311e-17 0)
(5.41974e-18 0 0)
(3.23489e-17 2.25513e-16 0)
(-5.78822e-17 5.2692e-16 0)
(1.22645e-15 3.44775e-16 0)
(2.90214e-11 1.95156e-17 0)
(8.49241e-08 -2.48281e-15 0)
(2.63187e-05 1.22517e-14 0)
(0.00124416 -2.04826e-14 0)
(0.0138227 1.84714e-14 0)
(0.0575711 2.05904e-15 0)
(0.134805 -1.09315e-14 0)
(0.232013 6.31964e-15 0)
(0.339008 -2.19716e-15 0)
(0.451141 -1.21878e-15 0)
(0.567619 5.39151e-17 0)
(0.687846 3.38244e-15 0)
(0.811834 -8.80695e-16 0)
(0.910375 3.86455e-15 0)
(0.949208 4.07252e-15 0)
(0.923649 3.40469e-15 0)
(0.926393 5.05947e-15 0)
(0.93092 2.93736e-15 0)
(0.933131 2.42808e-15 0)
(0.937845 8.22122e-16 0)
(0.957976 -9.83911e-16 0)
(0.948702 -3.04922e-16 0)
(0.870789 -2.20333e-15 0)
(0.57027 -8.54778e-17 0)
(0.112487 4.59582e-15 0)
(0.00230835 -8.25566e-16 0)
(3.43576e-06 5.74623e-16 0)
(2.69182e-10 4.11995e-17 0)
(6.69223e-15 1.5504e-16 0)
(-6.31791e-17 1.30104e-17 0)
(2.89072e-18 0 0)
(1.32704e-16 0 0)
(2.90797e-16 1.11672e-16 0)
(1.05709e-16 0 0)
(-8.96775e-17 0 0)
(1.2741e-17 9.97462e-17 0)
(-8.6746e-17 2.01661e-16 0)
(-1.87606e-16 9.97462e-17 0)
(1.57904e-17 8.13149e-17 0)
(2.14001e-16 0 0)
(1.43744e-17 2.81892e-17 0)
(-1.5597e-16 1.98408e-16 0)
(1.53902e-17 2.81892e-17 0)
(2.16188e-16 0 0)
(2.71161e-17 0 0)
(-1.72168e-16 0 0)
(3.134e-17 9.32411e-17 0)
(2.37882e-16 1.7564e-16 0)
(6.96866e-17 5.42099e-18 0)
(-1.46127e-16 0 0)
(-4.07627e-17 0 0)
(-3.64193e-17 0 0)
(-1.21669e-16 -6.50519e-18 0)
(-9.10675e-17 -1.0842e-16 0)
(-2.04512e-16 4.44521e-17 0)
(-8.78182e-17 1.65882e-16 0)
(6.41962e-17 5.42099e-18 0)
(2.50527e-16 0 0)
(5.11456e-17 1.95156e-17 0)
(-1.18432e-16 1.87566e-16 0)
(-1.67174e-16 1.36609e-16 0)
(-7.89689e-17 6.39677e-17 0)
(0 1.38777e-16 0)
(0 0 0)
(1.72754e-16 0 0)
(4.6009e-16 0 0)
(9.03175e-17 7.37255e-17 0)
(-3.78555e-16 3.36101e-16 0)
(-2.75785e-16 5.20415e-16 0)
(-2.70581e-16 2.10334e-16 0)
(-4.96673e-17 0 0)
(-3.08667e-25 0 0)
(1.3447e-16 0 0)
(4.0326e-16 0 0)
(7.03522e-17 4.33679e-18 0)
(-2.1634e-16 0 0)
(2.82052e-17 1.97324e-16 0)
(2.86116e-16 4.98731e-17 0)
(-1.62381e-17 6.93887e-17 0)
(-3.52003e-16 0 0)
(-1.04886e-16 0 0)
(-2.20276e-17 1.01915e-16 0)
(-1.76416e-16 0 0)
(1.79626e-18 0 0)
(9.32906e-17 0 0)
(5.06441e-17 6.72203e-17 0)
(1.56979e-16 2.60208e-16 0)
(-6.51392e-17 4.77047e-16 0)
(-3.22832e-16 2.21176e-16 0)
(-3.19757e-16 0 0)
(-7.38784e-18 4.55363e-17 0)
(2.60086e-16 0 0)
(6.41649e-17 0 0)
(-6.94204e-23 8.45675e-17 0)
(-2.04166e-19 3.29596e-16 0)
(8.02283e-22 1.47451e-16 0)
(1.18057e-17 1.64798e-16 0)
(6.85761e-17 3.75133e-16 0)
(6.85236e-17 3.85975e-16 0)
(1.38246e-15 6.00646e-16 0)
(2.90216e-11 5.98477e-16 0)
(8.49241e-08 1.14491e-15 0)
(2.63187e-05 1.10439e-14 0)
(0.00124416 -1.87395e-14 0)
(0.0138227 1.89826e-14 0)
(0.0575711 2.53166e-15 0)
(0.134805 -1.70833e-14 0)
(0.232013 9.99185e-15 0)
(0.339008 -2.77744e-15 0)
(0.451141 2.03883e-15 0)
(0.567619 -4.97816e-16 0)
(0.687846 4.01035e-15 0)
(0.811834 3.66297e-16 0)
(0.910375 4.81539e-16 0)
(0.949208 1.88969e-15 0)
(0.923649 1.82003e-15 0)
(0.926393 5.2123e-15 0)
(0.93092 3.82043e-15 0)
(0.933131 2.09122e-15 0)
(0.937845 4.95364e-17 0)
(0.957976 -1.21004e-15 0)
(0.948702 3.89538e-16 0)
(0.870789 -1.23762e-15 0)
(0.57027 1.45795e-15 0)
(0.112487 5.67358e-15 0)
(0.00230835 -5.42082e-16 0)
(3.43576e-06 1.50053e-15 0)
(2.6918e-10 8.67359e-16 0)
(6.60881e-15 3.70796e-16 0)
(-1.10422e-16 1.59377e-16 0)
(7.95032e-18 6.17993e-17 0)
(1.20845e-16 1.49619e-16 0)
(2.19148e-16 3.18754e-16 0)
(4.89625e-17 1.50704e-16 0)
(-1.48631e-16 1.24683e-16 0)
(-2.23864e-17 1.44198e-16 0)
(1.64114e-17 2.7105e-17 0)
(-7.44376e-17 1.39862e-16 0)
(3.9301e-17 2.55871e-16 0)
(1.46428e-16 1.5504e-16 0)
(-2.68795e-18 5.85467e-17 0)
(-1.78244e-16 9.64936e-17 0)
(-7.21717e-17 1.46367e-16 0)
(1.00631e-16 1.17093e-16 0)
(9.75162e-17 5.63783e-17 0)
(-5.15514e-18 1.69135e-16 0)
(9.96804e-17 2.74302e-16 0)
(1.64151e-16 9.97462e-17 0)
(-1.68955e-18 -9.75778e-17 0)
(-1.68472e-16 -5.63783e-17 0)
(-6.75617e-17 5.20415e-17 0)
(-6.4416e-17 -4.98731e-17 0)
(-1.65316e-16 5.42099e-17 0)
(-6.42503e-17 4.33679e-18 0)
(-5.87788e-17 1.92987e-16 0)
(-1.12038e-16 3.55617e-16 0)
(-2.78695e-17 2.13587e-16 0)
(1.81652e-16 8.13149e-17 0)
(1.39931e-16 -6.50519e-17 0)
(-6.5434e-17 1.14925e-16 0)
(-2.52174e-16 3.16586e-16 0)
(-1.49627e-16 2.1684e-16 0)
(-1.63714e-16 3.18754e-16 0)
(-2.1684e-18 -2.1684e-18 0)
(1.96041e-16 -2.1684e-18 0)
(4.8881e-16 -2.1684e-18 0)
(1.60672e-16 3.90311e-17 0)
(-2.06958e-16 2.86228e-16 0)
(-5.03574e-16 1.25767e-16 0)
(-2.63655e-16 -2.1684e-18 0)
(-4.1743e-17 -2.1684e-18 0)
(-4.33638e-22 0 0)
(4.56103e-17 0 0)
(2.6122e-16 -4.33679e-18 0)
(8.12118e-17 -1.73472e-16 0)
(1.03395e-16 1.49619e-16 0)
(7.0402e-17 4.98731e-16 0)
(1.79176e-16 2.32018e-16 0)
(-1.22851e-17 0 0)
(-1.86356e-16 -2.1684e-18 0)
(6.12952e-18 1.14925e-16 0)
(-4.85224e-17 3.5128e-16 0)
(-2.31132e-16 1.73472e-16 0)
(9.23316e-18 0 0)
(2.13154e-16 1.19262e-16 0)
(6.72235e-17 3.01407e-16 0)
(2.44506e-16 1.17093e-16 0)
(-1.2021e-16 1.01915e-16 0)
(-4.82623e-16 4.11995e-17 0)
(-4.44021e-16 -4.33679e-18 0)
(-2.87149e-17 0 0)
(3.50692e-16 -2.1684e-18 0)
(9.86164e-17 0 0)
(-3.50977e-22 0 0)
(-8.38579e-19 8.45675e-17 0)
(3.61961e-21 0 0)
(2.16125e-17 -2.1684e-18 0)
(1.0548e-16 1.10588e-16 0)
(2.10962e-16 1.2143e-16 0)
(1.72413e-15 2.8406e-16 0)
(2.9022e-11 1.3726e-15 0)
(8.49241e-08 5.57278e-16 0)
(2.63187e-05 4.6383e-15 0)
(0.00124416 -1.32195e-14 0)
(0.0138227 9.8314e-15 0)
(0.0575711 1.06357e-14 0)
(0.134805 -2.05945e-14 0)
(0.232013 1.33857e-14 0)
(0.339008 -3.09673e-15 0)
(0.451141 2.0582e-15 0)
(0.567619 -6.02052e-16 0)
(0.687846 7.3172e-16 0)
(0.811834 -3.41538e-15 0)
(0.910375 -6.21138e-17 0)
(0.949208 6.41507e-16 0)
(0.923649 2.73101e-15 0)
(0.926393 4.10704e-15 0)
(0.93092 3.44197e-15 0)
(0.933131 2.56532e-15 0)
(0.937845 7.51681e-16 0)
(0.957976 7.74733e-17 0)
(0.948702 -6.77937e-16 0)
(0.870789 -1.61743e-15 0)
(0.57027 7.52067e-16 0)
(0.112487 1.06392e-15 0)
(0.00230835 2.44748e-15 0)
(3.43576e-06 2.09033e-15 0)
(2.69181e-10 -6.61361e-16 0)
(6.55001e-15 2.78639e-16 0)
(-1.01217e-16 3.42607e-16 0)
(3.2357e-17 2.07082e-16 0)
(1.78925e-16 2.72134e-16 0)
(6.91599e-17 3.25259e-16 0)
(-8.91605e-17 1.90819e-16 0)
(-2.00221e-16 3.01407e-16 0)
(-4.19509e-17 2.82976e-16 0)
(2.83969e-17 1.35525e-16 0)
(9.18917e-17 2.38524e-16 0)
(1.48659e-17 2.82976e-16 0)
(6.09591e-17 3.39354e-16 0)
(-2.9653e-17 1.85398e-16 0)
(-1.93451e-16 1.74556e-16 0)
(-3.91843e-17 3.28512e-16 0)
(8.94548e-17 3.56701e-16 0)
(2.2795e-16 2.20092e-16 0)
(1.76899e-16 3.62122e-16 0)
(-3.134e-17 3.56701e-16 0)
(-1.23216e-16 1.27935e-16 0)
(-1.84226e-17 -2.92734e-17 0)
(3.55747e-17 7.15571e-17 0)
(-6.59188e-17 1.22514e-16 0)
(-1.11056e-16 1.84314e-17 0)
(-6.32495e-17 1.20346e-16 0)
(4.67371e-18 1.6263e-17 0)
(3.33818e-17 8.89043e-17 0)
(-1.48868e-16 2.26597e-16 0)
(-1.64611e-16 4.11995e-16 0)
(-1.49902e-17 2.81892e-16 0)
(-3.76984e-17 1.13841e-16 0)
(6.81091e-17 2.1684e-18 0)
(-8.867e-17 1.5504e-16 0)
(-2.17275e-16 1.86482e-16 0)
(-3.91396e-16 1.66967e-16 0)
(-2.1684e-18 2.1684e-18 0)
(2.57587e-16 2.1684e-18 0)
(5.86602e-16 2.1684e-18 0)
(2.12774e-16 1.66967e-16 0)
(-3.74441e-16 -1.23599e-16 0)
(-4.52391e-16 -5.1391e-16 0)
(-1.56015e-16 -2.1684e-16 0)
(-2.65872e-19 2.1684e-18 0)
(-8.34606e-20 0 0)
(9.28568e-17 -2.1684e-18 0)
(3.30193e-16 -6.07151e-17 0)
(1.47255e-16 1.14925e-16 0)
(3.30749e-16 0 0)
(1.47943e-16 1.47451e-16 0)
(2.03658e-16 -6.50519e-18 0)
(-2.64407e-17 9.10727e-17 0)
(-2.86515e-16 2.1684e-18 0)
(-3.65623e-17 2.1684e-18 0)
(-7.10527e-17 -1.51788e-17 0)
(-2.80204e-16 0 0)
(3.9846e-17 0 0)
(2.80653e-16 2.58039e-16 0)
(3.12664e-17 3.46943e-17 0)
(-4.30107e-17 -6.93887e-17 0)
(-5.68718e-17 -3.29596e-16 0)
(-2.40096e-16 -1.47451e-16 0)
(-2.02011e-16 -1.14925e-16 0)
(5.31087e-17 0 0)
(9.92582e-17 2.1684e-18 0)
(5.16423e-23 0 0)
(-4.94848e-20 0 0)
(-8.36912e-18 0 0)
(2.03222e-19 0 0)
(5.56393e-17 2.1684e-18 0)
(2.62445e-16 1.0842e-17 0)
(8.67817e-17 1.95156e-16 0)
(1.35108e-15 -2.81892e-17 0)
(2.90253e-11 2.99889e-15 0)
(8.49241e-08 3.3827e-16 0)
(2.63187e-05 3.43698e-15 0)
(0.00124416 -3.60333e-15 0)
(0.0138227 -4.55917e-15 0)
(0.0575711 2.16267e-14 0)
(0.134805 -2.46413e-14 0)
(0.232013 1.68882e-14 0)
(0.339008 -4.96439e-15 0)
(0.451141 -1.33177e-15 0)
(0.567619 7.29651e-16 0)
(0.687846 -1.6761e-15 0)
(0.811834 -1.56241e-15 0)
(0.910375 -2.39985e-16 0)
(0.949208 -7.4733e-16 0)
(0.923649 1.49291e-15 0)
(0.926393 -6.53127e-16 0)
(0.93092 3.51222e-16 0)
(0.933131 2.64421e-15 0)
(0.937845 -5.25358e-16 0)
(0.957976 1.23715e-15 0)
(0.948702 -2.167e-15 0)
(0.870789 -3.05142e-15 0)
(0.57027 8.96138e-18 0)
(0.112487 -1.80748e-15 0)
(0.00230835 1.00799e-14 0)
(3.43576e-06 -1.10371e-15 0)
(2.69182e-10 -1.59377e-16 0)
(6.81406e-15 -6.83045e-17 0)
(-1.25342e-16 1.7564e-16 0)
(3.68458e-17 2.10334e-16 0)
(1.96135e-16 8.78201e-17 0)
(7.53625e-17 1.38777e-16 0)
(1.0308e-18 5.52941e-17 0)
(-9.56829e-17 1.59377e-16 0)
(-1.4097e-17 8.23991e-17 0)
(5.90185e-17 1.38777e-16 0)
(-3.37081e-17 1.60461e-16 0)
(3.9656e-17 8.13149e-17 0)
(1.29096e-16 1.8323e-16 0)
(2.71753e-17 8.23991e-17 0)
(-4.63438e-17 1.79977e-16 0)
(6.69966e-17 3.28512e-16 0)
(2.07111e-18 4.29343e-16 0)
(1.11708e-16 3.32849e-16 0)
(6.85222e-18 1.92987e-16 0)
(-5.72726e-17 1.64798e-16 0)
(-1.4555e-16 2.23345e-16 0)
(-2.84367e-17 1.73472e-16 0)
(2.04213e-17 2.41776e-16 0)
(-1.38423e-16 1.06251e-16 0)
(-2.50526e-16 1.33356e-16 0)
(-1.75881e-16 -3.57785e-17 0)
(3.09712e-18 -8.56517e-17 0)
(2.00432e-16 -9.75778e-17 0)
(1.05122e-16 -5.09573e-17 0)
(5.36177e-17 2.14671e-16 0)
(3.1024e-17 4.30427e-16 0)
(-9.48464e-17 3.20923e-16 0)
(-1.04064e-16 6.72203e-17 0)
(-1.87826e-16 -1.35525e-16 0)
(-3.06833e-16 -4.55363e-17 0)
(-4.25006e-16 -1.60461e-16 0)
(0 0 0)
(1.50713e-16 0 0)
(4.30654e-16 -3.46943e-17 0)
(1.35141e-17 -1.90819e-16 0)
(-4.78694e-16 -5.07405e-16 0)
(-1.86414e-16 -2.10334e-16 0)
(-2.01541e-17 -1.0842e-17 0)
(1.3814e-18 0 0)
(-2.94384e-18 0 0)
(1.38186e-16 2.1684e-18 0)
(4.01887e-16 1.23599e-16 0)
(1.65599e-16 2.66713e-16 0)
(-7.9792e-17 1.51788e-17 0)
(8.73222e-17 -2.03829e-16 0)
(2.71499e-16 -6.50519e-17 0)
(-4.35277e-17 -9.32411e-17 0)
(-3.79225e-16 0 0)
(-9.29063e-17 -9.97462e-17 0)
(-2.01005e-18 -3.77301e-16 0)
(-5.77386e-17 -1.36609e-16 0)
(1.77957e-16 0 0)
(3.87893e-17 1.73472e-17 0)
(-1.91125e-16 -2.23345e-16 0)
(-2.39144e-17 -4.33679e-17 0)
(1.32537e-20 -8.67359e-17 0)
(-2.15819e-21 0 0)
(-2.3023e-20 1.19262e-16 0)
(1.29923e-19 0 0)
(7.8074e-19 0 0)
(-1.0469e-22 0 0)
(-1.55191e-18 0 0)
(-5.93672e-17 0 0)
(2.82516e-18 0 0)
(1.21643e-16 0 0)
(3.54532e-16 -6.50519e-18 0)
(1.1358e-16 -1.25767e-16 0)
(1.04144e-15 -6.93887e-17 0)
(2.90277e-11 7.52434e-16 0)
(8.49241e-08 1.22298e-15 0)
(2.63187e-05 3.27652e-15 0)
(0.00124416 1.0289e-15 0)
(0.0138227 -1.51694e-14 0)
(0.0575711 2.74918e-14 0)
(0.134805 -2.69472e-14 0)
(0.232013 1.39995e-14 0)
(0.339008 -5.74587e-15 0)
(0.451141 -1.92906e-15 0)
(0.567619 1.08909e-15 0)
(0.687846 -1.09657e-15 0)
(0.811834 -1.71843e-16 0)
(0.910375 -2.3986e-15 0)
(0.949208 -2.02804e-15 0)
(0.923649 -5.96517e-16 0)
(0.926393 -1.6059e-15 0)
(0.93092 -2.74168e-16 0)
(0.933131 9.18832e-16 0)
(0.937845 -3.24577e-15 0)
(0.957976 -7.28733e-16 0)
(0.948702 -2.66418e-15 0)
(0.870789 -3.073e-15 0)
(0.57027 1.96461e-16 0)
(0.112487 7.31693e-16 0)
(0.00230835 6.44331e-15 0)
(3.43576e-06 -2.41775e-15 0)
(2.69181e-10 5.44268e-16 0)
(7.10295e-15 -1.97324e-16 0)
(1.2616e-17 2.05998e-17 0)
(-9.48151e-17 5.85467e-17 0)
(3.82627e-17 -6.83045e-17 0)
(1.58817e-16 -1.19262e-17 0)
(4.62358e-18 0 0)
(-1.26332e-16 -1.51788e-17 0)
(-2.35507e-17 -1.17093e-16 0)
(7.90923e-17 -1.19262e-17 0)
(-2.31407e-17 -4.33679e-18 0)
(7.9986e-17 -1.07336e-16 0)
(1.8471e-16 -6.50519e-18 0)
(5.63451e-17 0 0)
(2.30419e-17 1.73472e-17 0)
(1.12211e-16 1.23599e-16 0)
(7.46978e-18 2.20092e-16 0)
(4.95763e-20 1.63714e-16 0)
(-2.80486e-17 2.1684e-18 0)
(-1.29101e-16 0 0)
(-7.38196e-18 7.80623e-17 0)
(1.35296e-16 2.43945e-16 0)
(1.04637e-17 8.56517e-17 0)
(-2.26133e-16 0 0)
(-4.22573e-16 7.04729e-17 0)
(-3.08375e-16 -6.93887e-17 0)
(-1.02477e-16 1.84314e-17 0)
(1.08731e-16 -2.11419e-16 0)
(3.25258e-16 -2.47197e-16 0)
(2.89006e-16 -1.95156e-17 0)
(4.95329e-17 2.19008e-16 0)
(-1.6938e-16 1.36609e-16 0)
(-3.00251e-16 -9.64936e-17 0)
(-2.73906e-16 -3.03576e-16 0)
(-1.71623e-16 -2.4286e-16 0)
(-2.39608e-16 -3.43691e-16 0)
(0 0 0)
(2.10222e-17 -1.95156e-17 0)
(1.77281e-16 -2.86228e-16 0)
(-3.39887e-17 -5.24752e-16 0)
(-1.77013e-16 -2.53702e-16 0)
(-1.10896e-17 0 0)
(2.77496e-17 0 0)
(1.27806e-17 0 0)
(-2.7286e-17 0 0)
(1.13808e-16 0 0)
(3.88217e-16 0 0)
(7.12449e-19 6.72203e-17 0)
(-3.66404e-16 0 0)
(-7.69887e-17 -5.20415e-17 0)
(1.17665e-16 0 0)
(1.93195e-17 -9.32411e-17 0)
(-1.98203e-16 0 0)
(-2.89545e-17 0 0)
(-5.59071e-18 -1.14925e-16 0)
(-7.02563e-18 0 0)
(1.1354e-16 0 0)
(2.0021e-18 -9.32411e-17 0)
(-1.26961e-16 -4.55363e-17 0)
(-1.07198e-17 0 0)
(6.62763e-20 0 0)
(-2.6617e-19 0 0)
(-9.82781e-20 0 0)
(6.37733e-19 0 0)
(-8.86764e-19 0 0)
(-1.17209e-20 0 0)
(-1.43955e-17 0 0)
(-1.53981e-16 0 0)
(1.23963e-17 -9.75778e-17 0)
(1.86258e-16 0 0)
(1.78959e-16 -1.8865e-16 0)
(-1.72267e-17 -4.55363e-16 0)
(1.24292e-15 -2.47197e-16 0)
(2.90282e-11 7.58939e-17 0)
(8.49241e-08 5.29089e-16 0)
(2.63187e-05 1.19264e-16 0)
(0.00124416 3.75745e-15 0)
(0.0138227 -1.61831e-14 0)
(0.0575711 2.22053e-14 0)
(0.134805 -1.89302e-14 0)
(0.232013 1.05129e-14 0)
(0.339008 -2.15488e-15 0)
(0.451141 -2.25998e-17 0)
(0.567619 6.12835e-16 0)
(0.687846 -2.5197e-17 0)
(0.811834 -2.47137e-15 0)
(0.910375 2.95198e-16 0)
(0.949208 6.58925e-16 0)
(0.923649 -2.91775e-18 0)
(0.926393 -4.76217e-16 0)
(0.93092 8.02434e-16 0)
(0.933131 -7.19611e-16 0)
(0.937845 -2.75404e-15 0)
(0.957976 -6.12523e-16 0)
(0.948702 -1.02392e-15 0)
(0.870789 -8.30294e-16 0)
(0.57027 -3.38465e-16 0)
(0.112487 1.80451e-15 0)
(0.00230835 9.1429e-16 0)
(3.43576e-06 -4.04405e-16 0)
(2.69181e-10 1.9624e-16 0)
(7.1139e-15 -9.8662e-17 0)
(-5.91966e-17 0 0)
(-1.08105e-16 -5.20415e-17 0)
(8.35814e-17 -1.0842e-17 0)
(2.03697e-16 0 0)
(4.99273e-18 8.02307e-17 0)
(-1.90888e-16 0 0)
(-3.78268e-17 -1.51788e-17 0)
(7.81659e-17 -8.34833e-17 0)
(-2.44511e-17 -1.6263e-17 0)
(6.85845e-17 -2.27682e-17 0)
(1.86988e-16 0 0)
(3.13698e-17 0 0)
(6.13071e-17 2.1684e-18 0)
(1.8693e-16 0 0)
(4.96441e-17 0 0)
(-1.19722e-18 0 0)
(-3.69635e-17 0 0)
(-1.66832e-16 0 0)
(3.14336e-17 0 0)
(2.16273e-16 1.04083e-16 0)
(1.92987e-17 0 0)
(-2.15784e-16 0 0)
(-4.30826e-16 0 0)
(-2.62773e-16 0 0)
(-1.45178e-16 -1.6263e-17 0)
(1.70151e-17 -8.89043e-17 0)
(2.78968e-16 -9.75778e-17 0)
(3.57462e-16 0 0)
(1.04697e-16 0 0)
(-2.57403e-16 0 0)
(-4.20241e-16 5.63783e-17 0)
(-2.65353e-16 -9.64936e-17 0)
(-8.55879e-17 -7.26413e-17 0)
(-6.83045e-17 -1.74556e-16 0)
(7.37255e-17 1.99492e-16 0)
(7.32321e-17 0 0)
(-6.05665e-17 -4.11995e-17 0)
(-5.04266e-17 -2.51534e-16 0)
(-1.48699e-17 -3.68627e-17 0)
(9.92667e-18 0 0)
(1.52222e-16 0 0)
(4.26701e-17 1.51788e-16 0)
(-9.64531e-17 3.25259e-17 0)
(1.16833e-16 -2.1684e-18 0)
(4.05092e-16 0 0)
(3.75228e-17 0 0)
(-3.31287e-16 0 0)
(-3.95565e-17 -6.93887e-17 0)
(1.68788e-16 0 0)
(2.46961e-17 9.32411e-17 0)
(-2.00072e-16 4.11995e-17 0)
(-1.13933e-16 0 0)
(-2.6791e-17 0 0)
(7.40104e-18 0 0)
(1.95103e-16 0 0)
(4.79811e-18 9.32411e-17 0)
(-1.90916e-16 0 0)
(-1.92322e-17 0 0)
(1.16088e-18 0 0)
(-8.64155e-18 0 0)
(-3.60753e-18 0 0)
(1.14284e-18 0 0)
(-1.52548e-17 0 0)
(-3.22143e-19 0 0)
(-5.17701e-17 0 0)
(-1.88589e-16 -1.60461e-16 0)
(1.63887e-17 -3.46943e-16 0)
(2.2437e-16 -1.66967e-16 0)
(5.12358e-17 -6.50519e-18 0)
(-3.88342e-17 -1.66967e-16 0)
(1.38231e-15 -2.81892e-17 0)
(2.90283e-11 -3.64291e-16 0)
(8.49241e-08 2.4286e-16 0)
(2.63187e-05 -1.04953e-15 0)
(0.00124416 2.7025e-15 0)
(0.0138227 -9.69098e-15 0)
(0.0575711 1.1163e-14 0)
(0.134805 -1.00732e-14 0)
(0.232013 2.61032e-15 0)
(0.339008 -5.42365e-16 0)
(0.451141 7.57094e-16 0)
(0.567619 -2.87547e-16 0)
(0.687846 1.62369e-15 0)
(0.811834 5.16659e-16 0)
(0.910375 1.61872e-15 0)
(0.949208 2.04349e-15 0)
(0.923649 2.49954e-16 0)
(0.926393 1.57178e-17 0)
(0.93092 -6.30048e-16 0)
(0.933131 -1.8268e-15 0)
(0.937845 -1.61607e-15 0)
(0.957976 -2.24673e-16 0)
(0.948702 -7.89091e-16 0)
(0.870789 5.68096e-16 0)
(0.57027 -1.16015e-15 0)
(0.112487 1.86087e-15 0)
(0.00230835 -1.42716e-15 0)
(3.43576e-06 -1.02999e-16 0)
(2.69181e-10 -7.95802e-16 0)
(7.22459e-15 -8.78201e-17 0)
(-1.72533e-17 0 0)
(-1.19136e-16 5.20415e-17 0)
(6.73936e-17 0 0)
(2.06611e-16 -9.54094e-17 0)
(4.42737e-18 -8.02307e-17 0)
(-1.97035e-16 -1.25767e-16 0)
(-4.53025e-17 -8.99885e-17 0)
(9.15204e-17 -2.28766e-16 0)
(-1.16469e-17 -1.30104e-16 0)
(1.10778e-16 -6.50519e-18 0)
(2.4124e-16 -8.56517e-17 0)
(9.67118e-17 -7.69781e-17 0)
(3.17329e-18 7.26413e-17 0)
(1.52454e-18 -6.72203e-17 0)
(-2.64515e-18 -1.73472e-16 0)
(1.54476e-17 -1.5504e-16 0)
(8.88134e-17 -1.27935e-16 0)
(-1.32264e-17 -8.67359e-18 0)
(3.31482e-17 6.72203e-17 0)
(1.04125e-16 0 0)
(6.09101e-19 0 0)
(-1.90748e-16 0 0)
(-3.92417e-16 0 0)
(-3.93717e-16 5.31257e-17 0)
(-2.28771e-16 -1.11672e-16 0)
(8.11921e-17 -1.0842e-18 0)
(3.49046e-16 0 0)
(3.75121e-16 -2.81892e-17 0)
(1.86757e-16 -1.36609e-16 0)
(-1.25789e-16 4.01153e-17 0)
(-3.51747e-16 2.27682e-16 0)
(-3.78521e-16 1.25767e-16 0)
(-2.17391e-16 1.38777e-16 0)
(-1.2143e-16 1.06251e-16 0)
(3.46943e-16 4.68374e-16 0)
(1.24845e-16 1.84314e-16 0)
(-1.86545e-16 1.34441e-16 0)
(-2.36744e-16 -1.32272e-16 0)
(-3.7374e-17 2.1684e-18 0)
(8.62005e-17 0 0)
(2.73541e-16 2.2985e-16 0)
(7.11995e-17 4.31511e-16 0)
(-1.15338e-16 2.47197e-16 0)
(1.43774e-16 1.10588e-16 0)
(2.8916e-16 1.30104e-16 0)
(3.45247e-17 -1.30104e-16 0)
(-2.27351e-16 -7.80623e-17 0)
(-2.7406e-17 -2.68881e-16 0)
(1.92287e-16 -7.15571e-17 0)
(4.15294e-17 -6.50519e-18 0)
(-2.21203e-16 2.58039e-16 0)
(-2.98135e-16 7.58939e-17 0)
(-8.54606e-17 0 0)
(4.34632e-17 0 0)
(2.55244e-16 0 0)
(8.03479e-18 -3.03576e-17 0)
(-2.21143e-16 0 0)
(-1.76497e-17 0 0)
(6.04714e-18 0 0)
(-7.93841e-17 0 0)
(-3.51701e-17 0 0)
(-2.56085e-18 0 0)
(-7.98018e-17 0 0)
(-3.44286e-18 0 0)
(-8.69322e-17 0 0)
(-3.33273e-16 8.67359e-18 0)
(1.73665e-17 2.1684e-17 0)
(3.43499e-16 0 0)
(5.47206e-17 0 0)
(-1.14384e-16 0 0)
(1.45518e-15 2.1684e-18 0)
(2.90272e-11 -1.66967e-15 0)
(8.49241e-08 3.14418e-16 0)
(2.63187e-05 -2.21181e-15 0)
(0.00124416 2.63955e-15 0)
(0.0138227 -2.47485e-15 0)
(0.0575711 1.21174e-15 0)
(0.134805 -1.2552e-15 0)
(0.232013 -4.62009e-15 0)
(0.339008 -6.80873e-16 0)
(0.451141 3.26083e-16 0)
(0.567619 -3.57637e-16 0)
(0.687846 1.60354e-15 0)
(0.811834 3.10109e-15 0)
(0.910375 3.3347e-15 0)
(0.949208 2.87627e-15 0)
(0.923649 6.49685e-16 0)
(0.926393 6.65166e-16 0)
(0.93092 -1.69626e-15 0)
(0.933131 -3.56626e-15 0)
(0.937845 1.33612e-16 0)
(0.957976 -1.27444e-15 0)
(0.948702 -3.30457e-16 0)
(0.870789 1.72371e-15 0)
(0.57027 -1.53653e-15 0)
(0.112487 3.46862e-15 0)
(0.00230835 -4.55306e-15 0)
(3.43576e-06 1.19261e-17 0)
(2.69182e-10 -5.16078e-16 0)
(7.24219e-15 -2.1684e-18 0)
(1.32568e-16 -1.39862e-16 0)
(-4.15986e-18 1.73472e-17 0)
(-3.62765e-17 -9.10727e-17 0)
(7.38773e-17 -2.30934e-16 0)
(6.79251e-19 -1.69135e-16 0)
(-5.77778e-17 -2.69965e-16 0)
(-5.21982e-17 -1.24683e-16 0)
(9.08155e-17 -6.72203e-17 0)
(-1.09554e-17 -2.7105e-17 0)
(2.31852e-17 -7.91465e-17 0)
(1.5901e-16 -2.1684e-16 0)
(1.18629e-16 -2.34187e-16 0)
(5.97417e-18 -1.2143e-16 0)
(-1.05857e-16 -2.43945e-16 0)
(-3.7897e-18 -3.67543e-16 0)
(3.93108e-17 -3.42607e-16 0)
(1.60556e-16 -3.15502e-16 0)
(6.32661e-17 -1.65882e-16 0)
(6.59257e-17 -6.72203e-17 0)
(1.10238e-16 0 0)
(-9.52218e-18 0 0)
(-6.24338e-17 -6.72203e-17 0)
(-2.8345e-16 1.51788e-17 0)
(-4.14677e-16 2.03829e-16 0)
(-2.02617e-16 9.10727e-17 0)
(4.18451e-17 0 0)
(2.33393e-16 9.10727e-17 0)
(3.33323e-16 -1.61546e-16 0)
(1.81687e-16 -3.16586e-16 0)
(6.13417e-17 -9.75778e-17 0)
(-2.53424e-16 5.09573e-17 0)
(-3.41495e-16 2.32018e-16 0)
(-2.13549e-16 3.43691e-16 0)
(-3.16586e-16 2.98155e-16 0)
(5.59446e-16 2.51534e-16 0)
(1.80639e-16 1.04083e-16 0)
(-2.52729e-16 3.03576e-17 0)
(-3.26154e-16 1.38777e-16 0)
(-1.8843e-17 4.55363e-17 0)
(2.47354e-16 1.84314e-16 0)
(4.9613e-16 1.60461e-16 0)
(1.23897e-16 2.05998e-16 0)
(-2.96588e-16 1.86482e-16 0)
(2.39342e-16 3.62122e-16 0)
(-7.01427e-17 5.42099e-17 0)
(-1.97266e-16 -2.53702e-16 0)
(-1.64638e-16 4.81481e-34 0)
(-8.94634e-17 8.23991e-17 0)
(2.19853e-16 -2.1684e-18 0)
(2.69648e-16 -2.36355e-16 0)
(-4.5158e-17 7.58939e-17 0)
(-4.14888e-16 2.34187e-16 0)
(-1.46855e-16 5.85467e-17 0)
(8.78438e-17 1.45283e-16 0)
(-1.35163e-16 -2.1684e-18 0)
(-1.2121e-16 -2.79723e-16 0)
(1.17589e-16 1.51788e-17 0)
(2.82913e-16 2.2985e-16 0)
(9.33799e-18 1.17093e-16 0)
(-2.66871e-16 2.38524e-17 0)
(-1.20479e-16 0 0)
(-2.1526e-17 0 0)
(-1.89331e-16 2.60208e-17 0)
(-2.03393e-17 -4.33679e-18 0)
(6.08988e-17 2.60208e-17 0)
(-1.21727e-16 2.08166e-16 0)
(6.12666e-17 3.88143e-16 0)
(5.65585e-17 1.2143e-16 0)
(-1.65853e-16 2.1684e-18 0)
(-2.13106e-16 -1.12757e-16 0)
(1.66396e-15 -4.33679e-18 0)
(2.90248e-11 -8.89043e-16 0)
(8.49241e-08 -2.99022e-15 0)
(2.63187e-05 3.07269e-15 0)
(0.00124416 -3.7314e-15 0)
(0.0138227 4.64693e-15 0)
(0.0575711 -9.48434e-15 0)
(0.134805 8.08025e-15 0)
(0.232013 -8.85705e-15 0)
(0.339008 3.02092e-15 0)
(0.451141 -9.08835e-16 0)
(0.567619 4.79845e-16 0)
(0.687846 9.1717e-16 0)
(0.811834 -1.18029e-15 0)
(0.910375 3.71303e-15 0)
(0.949208 2.94429e-15 0)
(0.923649 1.83624e-15 0)
(0.926393 5.28053e-16 0)
(0.93092 4.75941e-16 0)
(0.933131 -2.19666e-15 0)
(0.937845 6.07616e-16 0)
(0.957976 -1.94942e-15 0)
(0.948702 -7.73069e-16 0)
(0.870789 8.28675e-16 0)
(0.57027 3.9568e-16 0)
(0.112487 2.10807e-15 0)
(0.00230835 -2.97334e-15 0)
(3.43576e-06 -1.56124e-16 0)
(2.69182e-10 2.27682e-17 0)
(7.13868e-15 -7.69781e-17 0)
(2.60894e-16 -1.8323e-16 0)
(9.30278e-17 -1.47451e-16 0)
(-5.5773e-17 1.19262e-17 0)
(4.70285e-17 -5.52941e-17 0)
(3.11245e-18 -2.7105e-17 0)
(-2.85284e-17 -1.26851e-16 0)
(7.72308e-17 -2.49366e-17 0)
(2.04705e-17 3.68627e-17 0)
(-8.24689e-17 -6.72203e-17 0)
(-8.76645e-17 3.57785e-17 0)
(5.52045e-17 -8.99885e-17 0)
(1.61001e-16 -8.89043e-17 0)
(-9.68231e-18 -2.7105e-17 0)
(-1.53438e-16 -1.69135e-16 0)
(4.93495e-19 -1.73472e-16 0)
(8.07071e-17 -1.51788e-16 0)
(2.35399e-16 -1.48535e-16 0)
(1.34256e-16 -2.2985e-16 0)
(1.75687e-16 -8.23991e-17 0)
(1.30601e-16 0 0)
(-5.42229e-18 -8.67359e-17 0)
(2.11211e-17 -2.2985e-16 0)
(-1.66872e-17 -1.0842e-17 0)
(-2.35311e-16 2.0925e-16 0)
(-2.32334e-16 2.91649e-16 0)
(-5.37178e-17 1.14925e-16 0)
(9.60683e-17 0 0)
(1.58504e-16 -1.23599e-16 0)
(3.23383e-16 -2.15755e-16 0)
(2.02109e-16 -6.93887e-17 0)
(-6.87197e-17 -8.99885e-17 0)
(-2.18449e-16 1.07336e-16 0)
(-2.85448e-16 1.66967e-16 0)
(-4.35848e-16 1.81061e-16 0)
(3.68627e-16 -4.33679e-18 0)
(1.14498e-16 2.55871e-16 0)
(-1.89473e-16 2.10334e-16 0)
(-1.18113e-16 3.94648e-16 0)
(1.21088e-16 2.66713e-16 0)
(3.54048e-16 4.90058e-16 0)
(3.1311e-16 3.40438e-16 0)
(1.62348e-17 1.23599e-16 0)
(-1.1374e-16 1.97324e-16 0)
(-1.14208e-16 1.0842e-17 0)
(-2.72242e-16 -2.62376e-16 0)
(-3.53851e-17 -3.25259e-17 0)
(-1.90176e-16 2.40692e-16 0)
(-2.47772e-17 4.42353e-16 0)
(2.13462e-16 2.03829e-16 0)
(9.30521e-17 -5.42099e-17 0)
(4.70245e-17 1.69135e-16 0)
(-2.28329e-16 4.38016e-16 0)
(-4.41241e-17 2.60208e-16 0)
(8.00807e-17 4.18501e-16 0)
(-1.53201e-16 2.12503e-16 0)
(-1.32257e-16 6.28835e-17 0)
(1.41386e-16 2.38524e-16 0)
(3.45172e-16 5.61615e-16 0)
(-1.94361e-17 3.75133e-16 0)
(-3.85461e-16 2.27682e-16 0)
(-1.93698e-16 2.81892e-17 0)
(-3.90264e-17 6.50519e-17 0)
(-2.21006e-16 1.53956e-16 0)
(-7.56958e-17 -7.15571e-17 0)
(1.63024e-16 0 0)
(1.12588e-16 0 0)
(2.01633e-16 1.84314e-16 0)
(-2.45e-17 4.03322e-16 0)
(-2.1025e-16 2.19008e-16 0)
(-7.37425e-18 1.10588e-16 0)
(1.5723e-15 2.60208e-17 0)
(2.90249e-11 9.95294e-16 0)
(8.49241e-08 -4.26307e-15 0)
(2.63187e-05 6.50533e-15 0)
(0.00124416 -1.11855e-14 0)
(0.0138227 1.20232e-14 0)
(0.0575711 -2.30697e-14 0)
(0.134805 1.6208e-14 0)
(0.232013 -1.08642e-14 0)
(0.339008 4.37537e-15 0)
(0.451141 -3.68215e-15 0)
(0.567619 -9.09368e-16 0)
(0.687846 1.56725e-15 0)
(0.811834 -3.28989e-16 0)
(0.910375 2.11156e-15 0)
(0.949208 1.38917e-15 0)
(0.923649 1.50426e-15 0)
(0.926393 1.78581e-16 0)
(0.93092 5.90626e-16 0)
(0.933131 -1.26254e-15 0)
(0.937845 -1.98146e-16 0)
(0.957976 -2.41378e-15 0)
(0.948702 -9.12261e-16 0)
(0.870789 -1.81111e-15 0)
(0.57027 1.40901e-15 0)
(0.112487 -1.41098e-15 0)
(0.00230835 2.05039e-15 0)
(3.43576e-06 -8.8145e-16 0)
(2.69182e-10 -8.80369e-16 0)
(7.06176e-15 -3.68627e-17 0)
(1.0428e-16 7.58939e-18 0)
(2.07192e-16 -9.43252e-17 0)
(6.189e-17 0 0)
(-1.18271e-16 1.12757e-16 0)
(-4.8917e-17 2.92734e-17 0)
(-3.85613e-18 1.31188e-16 0)
(1.00219e-16 2.7105e-17 0)
(1.41875e-17 -6.50519e-17 0)
(-8.80098e-17 3.79469e-17 0)
(1.69236e-17 1.45283e-16 0)
(1.72421e-16 1.13841e-16 0)
(9.03575e-17 0 0)
(-7.8041e-17 -8.56517e-17 0)
(-6.68675e-17 6.83045e-17 0)
(8.20107e-17 1.37693e-16 0)
(-8.54456e-22 3.57785e-17 0)
(4.54755e-17 6.28835e-17 0)
(1.68187e-16 -5.20415e-17 0)
(2.37448e-16 0 0)
(4.68098e-17 0 0)
(-1.22632e-16 -1.48535e-16 0)
(4.2502e-17 -4.87889e-17 0)
(1.53735e-16 0 0)
(-3.00739e-17 -1.40946e-17 0)
(-1.86183e-16 1.44198e-16 0)
(-1.27748e-16 1.30104e-17 0)
(5.89525e-17 4.66205e-17 0)
(1.26478e-16 1.23599e-16 0)
(2.47509e-16 6.07151e-17 0)
(1.23524e-16 -1.32272e-16 0)
(-1.55347e-16 -1.89735e-16 0)
(-2.99046e-16 -2.49366e-17 0)
(-2.46425e-16 0 0)
(-3.46943e-16 6.39677e-17 0)
(5.85467e-16 -2.27682e-16 0)
(2.20482e-16 -1.01915e-16 0)
(-1.60661e-16 -6.93887e-17 0)
(-1.53488e-16 1.34441e-16 0)
(1.71555e-16 8.23991e-17 0)
(4.53659e-16 1.95156e-16 0)
(1.14033e-16 -2.60208e-17 0)
(-1.10353e-16 -3.05744e-16 0)
(-3.3608e-16 -1.77809e-16 0)
(-4.11807e-16 -3.64291e-16 0)
(-6.81487e-17 -5.63783e-17 0)
(1.78025e-16 2.75386e-16 0)
(-1.87283e-17 8.45675e-17 0)
(-2.10973e-16 2.55871e-16 0)
(-2.83779e-17 -4.33679e-18 0)
(2.77121e-16 -3.68627e-17 0)
(1.65267e-16 -1.40946e-16 0)
(-2.44172e-17 4.98731e-17 0)
(1.62736e-18 4.33679e-18 0)
(2.24774e-17 4.55363e-17 0)
(-1.61601e-16 -1.40946e-16 0)
(-1.21336e-16 4.33679e-18 0)
(1.53593e-16 5.63783e-17 0)
(1.73318e-16 1.79977e-16 0)
(-1.79704e-16 8.67359e-18 0)
(-5.83003e-16 2.1684e-18 0)
(-2.2161e-16 0 0)
(1.44845e-16 0 0)
(-4.59889e-17 -4.33679e-17 0)
(-3.1182e-16 -3.05744e-16 0)
(-2.19019e-17 -3.68627e-17 0)
(1.92542e-16 0 0)