/*--------------------------------*- C++ -*----------------------------------*\
| =========                 |                                                 |
| \\      /  F ield         | OpenFOAM: The Open Source CFD Toolbox           |
|  \\    /   O peration     | Version:  4.1                                   |
|   \\  /    A nd           | Web:      www.OpenFOAM.org                      |
|    \\/     M anipulation  |                                                 |
\*---------------------------------------------------------------------------*/
FoamFile
{
    version     2.0;
    format      ascii;
    class       volVectorField;
    location    "0.02";
    object      U;
}
// * * * * * * * * * * * * * * * * * * * * * * * * * * * * * * * * * * * * * //

dimensions      [0 1 -1 0 0 0 0];

internalField   nonuniform List<vector> 
10000
(
(0 0 0)
(1.09903e-29 0 0)
(1.31553e-18 0 0)
(-1.70077e-18 6.50519e-18 0)
(8.94111e-19 0 0)
(-7.04944e-21 0 0)
(-3.34615e-21 0 0)
(6.87242e-22 0 0)
(-7.01962e-37 0 0)
(-5.24328e-23 9.75778e-17 0)
(1.70629e-16 0 0)
(2.8431e-21 -1.2143e-16 0)
(-1.71123e-16 0 0)
(-4.33569e-18 0 0)
(1.40322e-18 0 0)
(4.04268e-18 8.67359e-18 0)
(-1.36392e-18 0 0)
(3.51951e-24 0 0)
(8.86853e-59 0 0)
(-5.3785e-25 0 0)
(5.33377e-29 0 0)
(-2.27107e-18 9.32411e-17 0)
(2.16647e-18 0 0)
(3.27204e-21 0 0)
(2.92899e-21 0 0)
(-3.78119e-21 0 0)
(-8.2966e-17 -1.17093e-16 0)
(6.9352e-21 0 0)
(8.24143e-17 0 0)
(3.05415e-45 1.19262e-16 0)
(-2.15824e-17 0 0)
(-1.85566e-34 -1.0842e-16 0)
(2.15824e-17 -2.1684e-18 0)
(-8.22599e-17 0 0)
(-6.67979e-19 0 0)
(5.35949e-19 9.32411e-17 0)
(-2.02659e-17 0 0)
(6.07148e-17 0 0)
(-1.22773e-16 0 0)
(4.70449e-18 -9.75778e-17 0)
(9.12436e-17 0 0)
(-9.12424e-17 0 0)
(1.05876e-18 -9.32411e-17 0)
(3.97433e-15 0 0)
(1.19626e-10 -2.1684e-18 0)
(7.1497e-07 -3.85975e-16 0)
(0.000292566 -1.95418e-15 0)
(0.012944 1.26453e-15 0)
(0.11114 -2.771e-16 0)
(0.383924 -2.99477e-17 0)
(0.769594 3.07017e-16 0)
(0.766662 7.72598e-16 0)
(0.288964 2.38147e-16 0)
(0.0183776 -4.11056e-16 0)
(9.47365e-05 -7.81651e-16 0)
(2.66425e-08 3.52364e-16 0)
(6.83608e-13 0 0)
(2.28219e-17 -1.0083e-16 0)
(1.22016e-17 0 0)
(-9.89049e-17 0 0)
(-1.05059e-16 0 0)
(-2.2149e-18 0 0)
(5.02909e-23 0 0)
(8.74251e-17 -2.60208e-17 0)
(-8.33786e-70 -1.53956e-16 0)
(-8.7425e-17 -2.60208e-17 0)
(-1.1273e-21 0 0)
(-1.87971e-27 0 0)
(2.16639e-18 0 0)
(1.05167e-16 0 0)
(-1.18569e-21 0 0)
(-1.00685e-16 0 0)
(1.68669e-17 4.44521e-17 0)
(2.14939e-22 2.05998e-16 0)
(-2.34992e-17 6.28835e-17 0)
(-2.52918e-34 0 0)
(1.07335e-16 0 0)
(5.46241e-19 0 0)
(-1.07043e-16 2.1684e-18 0)
(-5.5007e-19 0 0)
(1.07331e-16 0 0)
(5.15701e-20 0 0)
(-1.07298e-16 0 0)
(5.92678e-19 0 0)
(1.06713e-16 2.1684e-18 0)
(6.59923e-17 0 0)
(-6.75437e-17 0 0)
(1.56005e-22 0 0)
(-1.47855e-23 0 0)
(-5.3585e-19 0 0)
(-2.15128e-18 -1.0842e-18 0)
(-1.03489e-16 0 0)
(-1.12819e-18 0 0)
(2.16611e-18 0 0)
(1.05172e-16 0 0)
(6.06372e-19 0 0)
(-1.05648e-16 2.1684e-18 0)
(-1.65999e-18 0 0)
(-1.14966e-25 0 0)
(0 0 0)
(0 0 0)
(2.41591e-24 0 0)
(3.77361e-17 6.50519e-18 0)
(-3.62589e-19 1.90819e-16 0)
(-2.99589e-17 6.50519e-18 0)
(-5.6483e-19 6.50519e-18 0)
(-1.18401e-18 0 0)
(6.65513e-20 0 0)
(-5.65007e-36 0 0)
(-6.47199e-22 0 0)
(4.27235e-17 0 0)
(1.39901e-20 0 0)
(-4.60269e-17 0 0)
(-4.23151e-18 0 0)
(3.78742e-17 8.67359e-18 0)
(3.13086e-18 1.86482e-16 0)
(-3.81867e-17 8.67359e-18 0)
(9.07373e-21 0 0)
(1.71426e-53 0 0)
(-3.48593e-21 0 0)
(1.23902e-24 0 0)
(-2.90069e-18 2.1684e-18 0)
(2.07061e-18 0 0)
(1.05076e-18 0 0)
(1.16198e-19 6.50519e-18 0)
(-1.25796e-18 0 0)
(-4.75258e-18 6.72203e-17 0)
(7.22427e-20 1.0842e-16 0)
(1.34786e-18 0 0)
(7.84652e-44 0 0)
(-8.22599e-17 0 0)
(-9.69004e-33 0 0)
(8.22599e-17 -9.10727e-17 0)
(-4.37557e-26 0 0)
(-1.20381e-18 1.0842e-17 0)
(4.53251e-18 2.01661e-16 0)
(-9.03621e-17 2.1684e-17 0)
(9.30381e-17 0 0)
(-3.35485e-17 0 0)
(2.17131e-17 1.36609e-16 0)
(4.34174e-20 0 0)
(-3.36727e-28 0 0)
(-1.23266e-16 9.32411e-17 0)
(3.89774e-15 0 0)
(1.19626e-10 -9.75778e-16 0)
(7.1497e-07 -6.93887e-17 0)
(0.000292566 -2.7545e-16 0)
(0.012944 2.19156e-16 0)
(0.11114 5.96185e-16 0)
(0.383924 1.2024e-15 0)
(0.769594 1.48328e-15 0)
(0.766662 9.30935e-16 0)
(0.288964 -4.08747e-16 0)
(0.0183776 8.56366e-18 0)
(9.47365e-05 -1.91889e-16 0)
(2.66425e-08 1.86482e-16 0)
(6.83478e-13 -1.51788e-17 0)
(1.11736e-16 -1.06251e-16 0)
(5.17046e-17 0 0)
(-8.16304e-17 0 0)
(-1.0099e-16 0 0)
(-2.86951e-18 1.0842e-18 0)
(4.14618e-20 0 0)
(2.35071e-17 2.1684e-18 0)
(-1.17098e-67 2.81892e-17 0)
(-2.35092e-17 2.1684e-18 0)
(-5.64646e-19 0 0)
(-4.84496e-23 0 0)
(1.64567e-18 0 0)
(1.06137e-16 1.0842e-18 0)
(-4.93605e-19 0 0)
(-5.26157e-17 0 0)
(5.17737e-17 0 0)
(4.6159e-21 2.7105e-17 0)
(-1.06137e-16 0 0)
(-3.43804e-31 1.0842e-18 0)
(1.06776e-16 0 0)
(1.42584e-17 0 0)
(-1.03583e-16 1.02999e-16 0)
(-1.49665e-17 0 0)
(1.05353e-16 0 0)
(3.0178e-18 0 0)
(-1.03685e-16 0 0)
(1.48241e-17 0 0)
(1.02412e-16 1.05167e-16 0)
(5.89814e-17 -1.0842e-18 0)
(-7.58682e-17 0 0)
(-2.32187e-20 0 0)
(-3.11952e-21 0 0)
(-1.5822e-17 -1.0842e-18 0)
(-3.62165e-27 -1.01915e-16 0)
(-8.53553e-17 -1.0842e-18 0)
(-2.96275e-18 1.0842e-18 0)
(5.51366e-19 0 0)
(1.05682e-16 0 0)
(1.97927e-17 0 0)
(-1.0235e-16 1.05167e-16 0)
(-1.92553e-17 0 0)
(-7.88635e-22 0 0)
(0 1.0842e-18 0)
(0 0 0)
(8.90122e-21 0 0)
(1.70846e-16 0 0)
(2.4112e-18 6.50519e-18 0)
(-1.33681e-16 1.30104e-17 0)
(-3.44971e-18 1.95156e-16 0)
(-3.662e-17 1.0842e-17 0)
(6.77081e-19 0 0)
(3.28843e-35 0 0)
(-7.00469e-20 0 0)
(1.63321e-16 0 0)
(9.43871e-19 4.33679e-18 0)
(-1.79381e-16 0 0)
(-2.5785e-18 1.0842e-17 0)
(1.6518e-16 0 0)
(1.31605e-18 4.33679e-18 0)
(-1.70197e-16 0 0)
(1.60852e-18 0 0)
(7.8347e-50 4.33679e-18 0)
(-1.25306e-18 0 0)
(4.69103e-21 0 0)
(5.60483e-19 0 0)
(-2.46424e-19 4.33679e-18 0)
(3.02975e-17 1.0842e-17 0)
(4.48766e-19 1.8865e-16 0)
(-3.81285e-17 6.50519e-18 0)
(-3.92885e-17 0 0)
(6.17233e-19 0 0)
(3.71788e-17 0 0)
(-1.71867e-42 0 0)
(-1.9148e-40 0 0)
(-4.74765e-31 1.0842e-16 0)
(6.50569e-33 9.54094e-17 0)
(8.43257e-25 0 0)
(1.40771e-19 1.0842e-16 0)
(3.25415e-17 3.90311e-17 0)
(-8.79586e-17 2.23345e-16 0)
(4.83929e-17 3.90311e-17 0)
(-9.50429e-17 1.0842e-17 0)
(8.75318e-17 1.90819e-16 0)
(1.29922e-18 6.50519e-18 0)
(7.32804e-27 0 0)
(-1.25547e-16 0 0)
(3.87562e-15 -6.50519e-18 0)
(1.19625e-10 -6.80877e-16 0)
(7.1497e-07 -3.94648e-16 0)
(0.000292566 2.32072e-15 0)
(0.012944 -1.90666e-16 0)
(0.11114 2.06086e-15 0)
(0.383924 1.53781e-15 0)
(0.769594 1.78085e-16 0)
(0.766662 2.35822e-16 0)
(0.288964 -2.47673e-16 0)
(0.0183776 1.48794e-15 0)
(9.47365e-05 -5.12789e-16 0)
(2.66425e-08 -6.64614e-16 0)
(6.8352e-13 -2.38524e-16 0)
(1.1562e-16 -1.0842e-18 0)
(3.91248e-17 0 0)
(-7.294e-17 -6.61361e-17 0)
(-6.96083e-17 6.61361e-17 0)
(-1.6951e-17 1.04083e-16 0)
(3.67872e-18 3.25259e-18 0)
(1.05137e-16 1.04083e-16 0)
(-6.62327e-65 7.04729e-17 0)
(-1.06287e-16 1.05167e-16 0)
(-2.21019e-17 0 0)
(-3.27609e-20 0 0)
(2.21477e-17 0 0)
(1.05638e-16 1.06251e-16 0)
(-1.53475e-17 0 0)
(-6.16146e-17 0 0)
(4.19225e-17 -1.0842e-18 0)
(1.15735e-19 -1.04083e-16 0)
(-6.90966e-17 0 0)
(-1.06898e-29 1.04083e-16 0)
(8.51253e-17 2.1684e-18 0)
(5.39698e-17 0 0)
(-7.45891e-17 2.1684e-18 0)
(-5.75393e-17 0 0)
(5.9038e-17 0 0)
(1.89875e-17 -5.20415e-17 0)
(-5.3616e-17 5.20415e-17 0)
(4.91756e-17 1.07336e-16 0)
(6.91241e-17 0 0)
(2.27506e-22 -1.06251e-16 0)
(-6.95232e-17 -5.52941e-17 0)
(-6.20921e-19 5.20415e-17 0)
(-4.21915e-20 -4.98731e-17 0)
(-6.74464e-17 5.31257e-17 0)
(-6.6265e-26 1.0842e-18 0)
(-1.3473e-19 1.04083e-16 0)
(-1.91587e-17 1.05167e-16 0)
(-2.03468e-17 1.0842e-18 0)
(8.50411e-17 -1.0842e-18 0)
(8.39481e-17 -1.06251e-16 0)
(-6.29675e-17 0 0)
(-8.73741e-17 1.06251e-16 0)
(-2.28066e-19 3.25259e-18 0)
(0 1.05167e-16 0)
(-2.1684e-18 -2.1684e-18 0)
(3.92273e-19 -2.1684e-18 0)
(5.20785e-17 -2.1684e-18 0)
(3.4313e-17 6.50519e-18 0)
(5.75163e-17 1.97324e-16 0)
(-3.10557e-17 2.1684e-18 0)
(-1.61609e-16 -2.1684e-18 0)
(1.21227e-18 -2.1684e-18 0)
(-4.62465e-34 0 0)
(-6.67063e-19 0 0)
(7.72417e-18 -4.33679e-18 0)
(2.11151e-18 -1.40946e-16 0)
(1.67322e-17 0 0)
(-6.20725e-19 2.05998e-16 0)
(8.01253e-18 9.32411e-17 0)
(-2.52624e-19 0 0)
(-3.31283e-17 -2.1684e-18 0)
(2.64505e-17 8.67359e-18 0)
(9.93807e-48 1.90819e-16 0)
(-3.77519e-17 8.67359e-18 0)
(1.31887e-18 0 0)
(4.23337e-17 8.67359e-18 0)
(-2.20877e-18 1.92987e-16 0)
(1.28854e-16 8.67359e-18 0)
(1.59167e-18 2.1684e-18 0)
(-1.65771e-16 -2.1684e-18 0)
(-1.81872e-16 -4.33679e-18 0)
(1.87271e-17 0 0)
(1.62828e-16 -2.1684e-18 0)
(-7.74881e-38 0 0)
(4.73228e-39 0 0)
(-1.09988e-29 0 0)
(1.38472e-31 0 0)
(1.50908e-23 -2.1684e-18 0)
(1.21225e-18 0 0)
(1.6285e-16 0 0)
(-6.58446e-18 2.1684e-18 0)
(-1.62063e-16 -2.1684e-18 0)
(-4.21067e-17 0 0)
(6.65349e-33 6.50519e-18 0)
(3.77372e-17 -2.1684e-18 0)
(1.115e-22 0 0)
(-1.31109e-16 8.67359e-18 0)
(3.89888e-15 3.25259e-17 0)
(1.19624e-10 6.07151e-17 0)
(7.1497e-07 -1.0842e-16 0)
(0.000292566 7.02724e-16 0)
(0.012944 -4.16397e-16 0)
(0.11114 -5.90187e-16 0)
(0.383924 -1.38059e-15 0)
(0.769594 -8.38625e-16 0)
(0.766662 2.98708e-16 0)
(0.288964 1.13271e-15 0)
(0.0183776 4.39958e-16 0)
(9.47365e-05 -2.66694e-16 0)
(2.66425e-08 -5.50773e-16 0)
(6.84005e-13 8.67359e-18 0)
(1.45344e-16 2.1684e-18 0)
(-1.84023e-17 0 0)
(-1.41564e-17 0 0)
(3.3203e-17 0 0)
(-6.85336e-17 1.0842e-18 0)
(1.41491e-17 1.06251e-16 0)
(7.06241e-17 7.04729e-17 0)
(-6.48783e-63 -3.36101e-17 0)
(-7.01835e-17 8.45675e-17 0)
(-1.04755e-16 1.06251e-16 0)
(-1.07993e-19 3.25259e-18 0)
(1.04066e-16 1.06251e-16 0)
(6.18333e-17 1.07336e-16 0)
(-6.01546e-17 2.1684e-18 0)
(-8.59654e-17 1.05167e-16 0)
(-7.90132e-23 1.04083e-16 0)
(1.6972e-18 3.25259e-18 0)
(5.71331e-17 1.05167e-16 0)
(-3.03126e-26 1.06251e-16 0)
(8.23952e-19 1.05167e-16 0)
(5.7177e-20 2.1684e-18 0)
(-8.40142e-17 2.1684e-18 0)
(-3.21009e-19 1.05167e-16 0)
(1.25426e-31 1.05167e-16 0)
(8.47156e-17 3.25259e-18 0)
(7.47519e-17 1.06251e-16 0)
(-5.36642e-17 1.05167e-16 0)
(-7.18501e-17 0 0)
(-1.26654e-21 -6.83045e-17 0)
(6.36076e-17 0 0)
(-1.61125e-17 6.93887e-17 0)
(-2.9484e-18 -3.36101e-17 0)
(4.56002e-17 6.72203e-17 0)
(-1.92442e-23 0 0)
(1.90369e-17 6.61361e-17 0)
(-8.72675e-17 9.32411e-17 0)
(-9.30898e-17 1.07336e-16 0)
(2.29128e-26 1.06251e-16 0)
(-1.84775e-19 1.0842e-18 0)
(6.86427e-17 0 0)
(-2.21704e-18 7.58939e-17 0)
(-3.75738e-18 1.06251e-16 0)
(-1.06251e-16 7.37255e-17 0)
(-2.1684e-18 2.1684e-18 0)
(1.04407e-17 2.1684e-18 0)
(2.04152e-16 2.1684e-18 0)
(1.18364e-16 1.17093e-16 0)
(-1.55546e-16 0 0)
(-1.64303e-16 -1.99492e-16 0)
(2.04579e-26 -1.0842e-17 0)
(2.07523e-25 2.1684e-18 0)
(-2.42299e-29 0 0)
(-7.61698e-19 -2.1684e-18 0)
(5.13266e-17 -7.37255e-17 0)
(1.93231e-18 1.10588e-16 0)
(1.34055e-16 0 0)
(-2.72717e-18 0 0)
(4.35281e-17 -9.10727e-17 0)
(2.26629e-18 9.10727e-17 0)
(-1.12532e-16 2.1684e-18 0)
(7.29115e-17 2.1684e-18 0)
(3.16238e-45 2.1684e-18 0)
(-1.64062e-16 0 0)
(3.74325e-17 0 0)
(1.74944e-16 2.12503e-16 0)
(-2.64643e-17 2.1684e-18 0)
(-7.81713e-17 -8.67359e-18 0)
(1.89215e-26 -1.90819e-16 0)
(-2.03222e-18 -8.67359e-18 0)
(-7.98531e-17 -9.10727e-17 0)
(8.22599e-17 0 0)
(-2.75607e-30 2.1684e-18 0)
(-3.39407e-33 0 0)
(2.37263e-34 0 0)
(-4.65005e-25 0 0)
(4.26432e-27 0 0)
(2.39031e-22 2.1684e-18 0)
(3.71643e-17 0 0)
(-2.42345e-22 9.32411e-17 0)
(-4.28205e-17 -9.32411e-17 0)
(-2.00984e-18 2.1684e-18 0)
(-1.61616e-16 0 0)
(8.46287e-30 0 0)
(1.66907e-16 2.1684e-18 0)
(7.71306e-20 0 0)
(-1.23416e-16 1.99492e-16 0)
(3.93804e-15 -6.28835e-17 0)
(1.19625e-10 1.02565e-15 0)
(7.1497e-07 3.44775e-16 0)
(0.000292566 -1.88261e-15 0)
(0.012944 8.54709e-17 0)
(0.11114 -1.47307e-15 0)
(0.383924 -8.04096e-16 0)
(0.769594 -2.75635e-16 0)
(0.766662 -6.40088e-16 0)
(0.288964 3.21282e-16 0)
(0.0183776 -1.43441e-15 0)
(9.47365e-05 2.20077e-16 0)
(2.66425e-08 4.65121e-16 0)
(6.83526e-13 1.6263e-16 0)
(9.52772e-17 1.05167e-16 0)
(3.78048e-17 0 0)
(-6.39657e-17 1.02999e-16 0)
(-6.90669e-17 1.0842e-18 0)
(3.80071e-17 0 0)
(4.25748e-17 5.20415e-17 0)
(-6.01951e-17 -5.20415e-17 0)
(-1.17304e-60 0 0)
(5.41383e-17 -4.11995e-17 0)
(-4.84894e-17 6.39677e-17 0)
(-1.08694e-17 1.04083e-16 0)
(9.21189e-17 2.1684e-18 0)
(5.57101e-19 0 0)
(-8.59096e-39 -5.20415e-17 0)
(-2.12641e-18 5.20415e-17 0)
(-2.17595e-21 2.1684e-18 0)
(1.68646e-17 1.02999e-16 0)
(-1.15894e-17 8.13149e-17 0)
(-9.66422e-25 -3.79469e-17 0)
(1.96195e-17 6.50519e-17 0)
(-4.24512e-19 0 0)
(-4.53455e-24 5.20415e-17 0)
(2.79293e-18 1.07336e-16 0)
(-3.45626e-27 1.05167e-16 0)
(1.00066e-71 1.04083e-16 0)
(1.39592e-26 2.1684e-18 0)
(-5.1473e-19 2.1684e-18 0)
(-8.37182e-17 7.04729e-17 0)
(-2.99996e-19 6.83045e-17 0)
(5.18161e-17 1.04083e-16 0)
(-5.18378e-17 2.1684e-18 0)
(-2.11665e-17 5.85467e-17 0)
(-1.16541e-17 -5.42099e-17 0)
(-2.65857e-22 -6.61361e-17 0)
(8.9861e-17 -6.61361e-17 0)
(1.1083e-17 -5.96309e-17 0)
(1.48123e-17 7.37255e-17 0)
(7.11403e-25 1.05167e-16 0)
(-2.80478e-18 1.07336e-16 0)
(-2.33204e-17 5.52941e-17 0)
(-1.46028e-17 -7.48097e-17 0)
(-3.83838e-17 0 0)
(-1.4203e-16 -7.37255e-17 0)
(0 0 0)
(5.93951e-30 0 0)
(1.6888e-16 0 0)
(1.77485e-18 -1.17093e-16 0)
(-1.62127e-16 -1.99492e-16 0)
(-3.50898e-23 -1.0842e-17 0)
(5.13508e-25 0 0)
(3.72467e-24 0 0)
(-1.02891e-24 0 0)
(1.08321e-17 2.1684e-18 0)
(2.03837e-16 1.0842e-16 0)
(-2.58279e-21 2.01661e-16 0)
(-1.1954e-16 0 0)
(-4.55481e-18 -1.97324e-16 0)
(1.64242e-16 -1.30104e-17 0)
(2.64917e-18 -9.32411e-17 0)
(-1.64072e-16 0 0)
(-8.89269e-23 -6.50519e-18 0)
(8.82832e-43 -1.97324e-16 0)
(8.61104e-27 -6.50519e-18 0)
(1.61767e-16 0 0)
(1.15585e-18 2.1684e-18 0)
(-1.62046e-16 -1.92987e-16 0)
(8.25685e-27 -1.0842e-17 0)
(5.27759e-25 -4.33679e-18 0)
(-2.99683e-31 0 0)
(-1.32153e-30 9.54094e-17 0)
(7.06054e-34 0 0)
(-4.1543e-29 0 0)
(-1.45511e-28 0 0)
(1.10449e-29 0 0)
(-3.2801e-21 0 0)
(1.289e-23 0 0)
(3.31362e-21 0 0)
(1.6285e-16 0 0)
(-9.00104e-21 0 0)
(-1.63019e-16 0 0)
(-6.19766e-22 0 0)
(-4.25246e-27 0 0)
(3.67673e-25 0 0)
(3.29317e-18 0 0)
(3.70688e-18 0 0)
(-8.93064e-17 6.50519e-18 0)
(3.80758e-15 -2.60208e-17 0)
(1.19626e-10 5.16078e-16 0)
(7.1497e-07 1.40946e-16 0)
(0.000292566 -8.6756e-16 0)
(0.012944 6.57468e-16 0)
(0.11114 -2.71102e-16 0)
(0.383924 1.84178e-16 0)
(0.769594 -1.24773e-16 0)
(0.766662 -1.40763e-15 0)
(0.288964 -6.5642e-16 0)
(0.0183776 -6.81881e-16 0)
(9.47365e-05 5.48565e-16 0)
(2.66425e-08 -4.22837e-17 0)
(6.83771e-13 -4.01153e-17 0)
(6.53772e-18 -1.0842e-18 0)
(1.7528e-17 -1.01915e-16 0)
(-1.57961e-42 0 0)
(-1.63788e-17 0 0)
(1.63711e-17 0 0)
(-5.95493e-17 0 0)
(-4.53343e-20 -7.04729e-17 0)
(-1.95387e-58 3.36101e-17 0)
(4.53701e-20 -7.04729e-17 0)
(4.25311e-17 0 0)
(-6.08277e-17 -1.0842e-18 0)
(1.85587e-17 -1.04083e-16 0)
(2.07617e-17 -1.0842e-18 0)
(-1.69215e-36 0 0)
(-2.09424e-17 -1.0842e-18 0)
(-4.98385e-20 -1.02999e-16 0)
(5.19276e-17 0 0)
(-5.20385e-17 -1.0842e-18 0)
(-3.11133e-23 -1.04083e-16 0)
(9.57677e-17 -1.0842e-18 0)
(-6.75647e-18 0 0)
(-7.18041e-23 -5.20415e-17 0)
(1.79369e-17 0 0)
(-1.18396e-24 2.1684e-18 0)
(2.71077e-67 1.0842e-18 0)
(4.40344e-23 0 0)
(-1.75079e-17 0 0)
(7.22125e-22 -3.36101e-17 0)
(1.87193e-17 7.04729e-17 0)
(3.09259e-27 1.0842e-18 0)
(-2.16828e-18 0 0)
(-1.05172e-16 5.20415e-17 0)
(-8.74339e-17 -5.09573e-17 0)
(-3.06674e-21 3.68627e-17 0)
(-1.17585e-17 -7.91465e-17 0)
(1.0356e-16 -1.02999e-16 0)
(1.07335e-16 -2.1684e-18 0)
(-3.13263e-22 2.1684e-18 0)
(-1.80464e-17 0 0)
(-1.07327e-16 -5.63783e-17 0)
(-8.73936e-17 -1.05167e-16 0)
(-3.25205e-23 -1.06251e-16 0)
(-3.14417e-17 -1.06251e-16 0)
(0 0 0)
(1.38255e-24 0 0)
(3.26594e-22 -6.50519e-18 0)
(-3.01035e-18 -1.95156e-16 0)
(2.17041e-18 -1.0842e-17 0)
(-5.34942e-21 0 0)
(3.48194e-21 0 0)
(8.23145e-21 0 0)
(-6.55164e-21 0 0)
(1.07751e-17 0 0)
(2.03796e-16 0 0)
(1.62392e-19 8.67359e-18 0)
(-2.06004e-16 0 0)
(-1.3079e-17 -6.50519e-18 0)
(1.61111e-18 0 0)
(4.51915e-18 -9.32411e-17 0)
(-1.52838e-18 0 0)
(-3.41108e-21 0 0)
(8.34308e-41 -6.50519e-18 0)
(2.84648e-25 0 0)
(1.17425e-18 0 0)
(-1.9557e-18 -9.32411e-17 0)
(8.64474e-19 -1.30104e-17 0)
(2.67728e-25 0 0)
(5.04595e-22 0 0)
(-1.32913e-26 0 0)
(-3.07748e-29 0 0)
(3.33024e-29 0 0)
(-1.25801e-24 0 0)
(-2.49083e-24 0 0)
(4.71411e-25 0 0)
(-1.21141e-18 0 0)
(4.27344e-21 -4.33679e-18 0)
(1.21746e-18 0 0)
(1.2511e-22 -6.50519e-18 0)
(-1.30775e-19 -1.95156e-16 0)
(-1.37062e-19 -6.50519e-18 0)
(4.17096e-21 0 0)
(-1.7096e-23 0 0)
(3.04577e-21 0 0)
(-1.84064e-17 0 0)
(1.9358e-17 -1.0842e-16 0)
(-7.07867e-17 0 0)
(3.74184e-15 -2.60208e-17 0)
(1.19626e-10 4.77047e-17 0)
(7.1497e-07 5.46436e-16 0)
(0.000292566 4.57638e-16 0)
(0.012944 6.57468e-17 0)
(0.11114 -6.47766e-17 0)
(0.383924 -4.9264e-16 0)
(0.769594 -4.04566e-17 0)
(0.766662 3.3745e-16 0)
(0.288964 -2.50271e-16 0)
(0.0183776 4.9241e-16 0)
(9.47365e-05 8.91148e-16 0)
(2.66425e-08 -2.22261e-16 0)
(6.83677e-13 0 0)
(-1.95661e-17 0 0)
(6.91072e-17 -1.0842e-18 0)
(-5.04781e-36 0 0)
(-5.19762e-17 0 0)
(5.18855e-17 0 0)
(-2.02847e-17 0 0)
(-4.2564e-19 0 0)
(-6.32265e-56 0 0)
(4.3143e-19 0 0)
(6.07212e-19 0 0)
(-6.64175e-17 -5.20415e-17 0)
(6.60021e-17 -1.0842e-18 0)
(1.06756e-16 0 0)
(-1.57167e-34 5.20415e-17 0)
(-1.0676e-16 0 0)
(-4.13481e-19 -1.0842e-18 0)
(5.31424e-17 -1.0842e-18 0)
(-5.18195e-17 0 0)
(4.74086e-21 -1.0842e-18 0)
(6.27789e-17 0 0)
(-4.17005e-17 0 0)
(-2.81844e-21 0 0)
(8.59363e-17 0 0)
(-4.54701e-23 0 0)
(-1.53569e-64 0 0)
(4.06333e-20 0 0)
(-8.41455e-17 0 0)
(2.05003e-20 0 0)
(8.37709e-17 0 0)
(-9.81014e-26 0 0)
(-2.1684e-18 0 0)
(-1.05167e-16 0 0)
(-2.35874e-17 0 0)
(-1.08751e-19 0 0)
(-5.44528e-17 0 0)
(7.519e-17 -2.1684e-18 0)
(1.07281e-16 0 0)
(4.12088e-20 0 0)
(-8.70553e-17 0 0)
(-1.0711e-16 0 0)
(-2.32052e-17 -2.1684e-18 0)
(3.20882e-21 -1.0842e-18 0)
(0 -1.0842e-18 0)
(0 4.33679e-18 0)
(4.39034e-21 0 0)
(-1.18322e-20 0 0)
(-8.63894e-18 -1.30104e-17 0)
(1.69447e-18 0 0)
(-2.83531e-20 0 0)
(1.24717e-18 0 0)
(1.78556e-18 4.33679e-18 0)
(-2.13655e-18 0 0)
(8.66472e-18 -2.1684e-18 0)
(2.03571e-16 0 0)
(-4.04966e-18 0 0)
(-2.13406e-16 0 0)
(-7.76964e-18 0 0)
(4.41865e-17 0 0)
(5.98108e-18 9.32411e-17 0)
(-4.11027e-17 4.33679e-18 0)
(-1.29838e-18 0 0)
(9.82723e-38 0 0)
(2.20735e-21 0 0)
(3.0179e-17 0 0)
(-1.40171e-18 9.32411e-17 0)
(-2.97971e-17 0 0)
(2.05552e-21 0 0)
(5.3215e-20 0 0)
(-1.52378e-22 0 0)
(-1.29095e-24 0 0)
(1.54756e-24 0 0)
(-5.55564e-21 0 0)
(-2.12756e-21 0 0)
(3.32953e-21 0 0)
(-3.70171e-17 -8.67359e-18 0)
(4.68717e-20 -1.92987e-16 0)
(3.71958e-17 -8.67359e-18 0)
(-1.40361e-21 0 0)
(-6.60337e-19 -6.50519e-18 0)
(1.27811e-18 0 0)
(1.55729e-20 0 0)
(-5.01469e-22 0 0)
(1.29746e-18 0 0)
(-8.22633e-17 1.0842e-17 0)
(7.2912e-17 0 0)
(5.88743e-18 0 0)
(3.71273e-15 3.03576e-17 0)
(1.19626e-10 4.98731e-17 0)
(7.1497e-07 -1.49619e-16 0)
(0.000292566 3.10153e-16 0)
(0.012944 -3.61608e-16 0)
(0.11114 7.06545e-16 0)
(0.383924 5.92964e-16 0)
(0.769594 3.58438e-16 0)
(0.766662 5.60358e-16 0)
(0.288964 -3.61118e-16 0)
(0.0183776 1.22032e-16 0)
(9.47365e-05 -8.56456e-17 0)
(2.66425e-08 1.58293e-16 0)
(6.83785e-13 0 0)
(1.5784e-18 0 0)
(1.6523e-17 -1.0842e-18 0)
(-4.27404e-29 0 0)
(-1.68059e-17 -1.0842e-18 0)
(1.59406e-17 0 0)
(-8.65768e-17 -1.0842e-18 0)
(-1.47516e-17 0 0)
(-6.21979e-54 -1.04083e-16 0)
(1.47501e-17 -1.0842e-18 0)
(1.53021e-17 0 0)
(-6.75794e-17 5.20415e-17 0)
(5.72854e-17 0 0)
(8.73728e-17 0 0)
(-1.84456e-32 -5.20415e-17 0)
(-8.75728e-17 0 0)
(-1.12789e-17 0 0)
(5.866e-17 -1.04083e-16 0)
(-4.42165e-17 -2.1684e-18 0)
(-4.63298e-19 0 0)
(1.04174e-16 -2.1684e-18 0)
(3.45247e-18 0 0)
(-5.11602e-20 1.02999e-16 0)
(-2.80259e-18 1.0842e-18 0)
(4.3845e-20 -2.1684e-18 0)
(-5.04263e-62 -1.0842e-18 0)
(2.78838e-18 -1.0842e-18 0)
(-3.73299e-19 0 0)
(3.34913e-19 5.20415e-17 0)
(5.14502e-19 0 0)
(-1.07835e-21 0 0)
(-2.16679e-18 0 0)
(-1.04976e-16 0 0)
(-1.05131e-16 0 0)
(-3.32915e-18 -1.02999e-16 0)
(-7.50657e-19 -1.0842e-18 0)
(1.0254e-16 0 0)
(1.03174e-16 0 0)
(2.90695e-18 -1.0842e-18 0)
(-2.72911e-18 0 0)
(-1.04479e-16 1.06251e-16 0)
(-1.03988e-16 2.1684e-18 0)
(-3.08524e-19 1.0842e-18 0)
(0 1.0842e-18 0)
(1.0842e-17 1.92987e-16 0)
(1.84681e-19 8.67359e-18 0)
(-1.31703e-19 9.32411e-17 0)
(-4.06618e-17 -9.10727e-17 0)
(-1.2767e-18 2.1684e-18 0)
(5.07731e-19 0 0)
(3.7736e-17 6.50519e-18 0)
(1.24363e-17 1.90819e-16 0)
(-5.74002e-17 6.50519e-18 0)
(5.70277e-17 0 0)
(1.76923e-16 1.01915e-16 0)
(-2.54634e-17 -1.01915e-16 0)
(-1.73713e-16 0 0)
(-6.19462e-18 -1.49619e-16 0)
(1.85089e-16 4.11995e-17 0)
(3.38222e-17 0 0)
(-1.66247e-16 2.01661e-16 0)
(-4.20466e-17 4.33679e-18 0)
(-1.20782e-35 0 0)
(8.33019e-19 0 0)
(1.26392e-16 0 0)
(7.46171e-19 -4.33679e-18 0)
(-1.30865e-16 0 0)
(8.13341e-19 0 0)
(5.60885e-19 0 0)
(-9.31816e-20 0 0)
(-6.89053e-21 0 0)
(7.35255e-21 0 0)
(-1.60751e-18 0 0)
(-1.67173e-19 0 0)
(1.21783e-18 0 0)
(-1.62385e-16 0 0)
(8.09207e-19 0 0)
(1.63277e-16 0 0)
(-3.55509e-19 0 0)
(-2.87282e-17 0 0)
(3.02879e-17 0 0)
(-1.57429e-18 0 0)
(3.03203e-19 -4.33679e-18 0)
(4.38019e-17 8.67359e-18 0)
(-2.46542e-20 1.92987e-16 0)
(-3.70072e-17 1.0842e-16 0)
(-3.7695e-17 0 0)
(3.81813e-15 2.08166e-16 0)
(1.19626e-10 -5.37762e-16 0)
(7.1497e-07 -1.63497e-15 0)
(0.000292566 1.6809e-15 0)
(0.012944 -1.42451e-16 0)
(0.11114 5.51801e-16 0)
(0.383924 1.50038e-15 0)
(0.769594 8.38625e-16 0)
(0.766662 8.82648e-16 0)
(0.288964 8.65989e-18 0)
(0.0183776 5.79117e-16 0)
(9.47365e-05 -1.38442e-15 0)
(2.66425e-08 -6.72203e-16 0)
(6.83656e-13 3.46943e-17 0)
(-2.80936e-17 -1.0842e-18 0)
(6.32225e-17 -1.04083e-16 0)
(-2.25362e-26 -2.1684e-18 0)
(-5.41989e-17 -1.04083e-16 0)
(4.7878e-17 -2.1684e-18 0)
(-1.47353e-17 -1.04083e-16 0)
(-6.82102e-17 -1.0842e-18 0)
(-2.59741e-51 -2.1684e-18 0)
(6.81853e-17 0 0)
(6.03901e-17 -5.63783e-17 0)
(-4.31443e-17 4.66205e-17 0)
(-1.26913e-17 0 0)
(1.26756e-17 -1.05167e-16 0)
(-3.45647e-30 -3.25259e-18 0)
(-1.35374e-17 -1.04083e-16 0)
(-3.37267e-17 -2.1684e-18 0)
(6.95682e-17 0 0)
(-1.80565e-17 0 0)
(-1.63919e-17 -1.0842e-18 0)
(8.70958e-17 -1.04083e-16 0)
(2.35033e-17 -1.05167e-16 0)
(-5.01859e-19 1.2037e-34 0)
(-2.07338e-17 -1.04083e-16 0)
(4.26491e-19 -1.05167e-16 0)
(9.66886e-58 -1.05167e-16 0)
(1.68747e-17 -1.05167e-16 0)
(2.83947e-18 -2.1684e-18 0)
(2.52948e-18 -5.20415e-17 0)
(1.74737e-17 0 0)
(-5.38718e-19 0 0)
(1.30541e-19 -1.0842e-18 0)
(-9.3494e-17 0 0)
(-1.06901e-16 1.04083e-16 0)
(-1.27437e-17 0 0)
(1.11163e-17 0 0)
(8.37748e-17 6.72203e-17 0)
(7.22987e-17 -6.72203e-17 0)
(1.5471e-17 -1.04083e-16 0)
(1.7507e-17 -2.1684e-18 0)
(-8.66718e-17 1.0842e-18 0)
(-8.66221e-17 1.02999e-16 0)
(-3.59781e-18 1.04083e-16 0)
(-3.90311e-17 1.04083e-16 0)
(1.92987e-16 8.67359e-18 0)
(6.27979e-18 8.67359e-18 0)
(-1.22367e-18 0 0)
(-1.72781e-16 6.50519e-18 0)
(-1.28815e-17 -9.54094e-17 0)
(2.626e-17 8.67359e-18 0)
(1.64062e-16 1.51788e-17 0)
(4.62962e-17 6.50519e-18 0)
(-2.23225e-16 1.73472e-17 0)
(2.15273e-16 1.99492e-16 0)
(-2.93955e-17 -2.1684e-18 0)
(-1.69525e-16 -1.84314e-16 0)
(-2.41788e-17 2.1684e-18 0)
(-1.00317e-16 -2.1684e-18 0)
(1.24423e-16 4.33679e-18 0)
(1.72971e-16 -1.99492e-16 0)
(-5.19964e-18 4.33679e-18 0)
(-1.91964e-16 1.51788e-17 0)
(-1.36772e-33 -2.1684e-18 0)
(2.57138e-17 4.33679e-18 0)
(-9.88228e-17 -1.51788e-17 0)
(-7.69114e-18 -2.01661e-16 0)
(8.12608e-17 -1.95156e-17 0)
(2.74826e-17 4.33679e-18 0)
(1.21485e-18 1.0842e-17 0)
(-6.7818e-18 8.67359e-18 0)
(-1.96655e-18 0 0)
(1.61055e-18 0 0)
(-4.22439e-17 0 0)
(-2.65291e-18 -4.33679e-18 0)
(3.71972e-17 0 0)
(1.25907e-18 8.67359e-18 0)
(1.06103e-17 1.99492e-16 0)
(-2.66878e-21 8.67359e-18 0)
(-1.53317e-17 0 0)
(-8.09982e-17 -9.54094e-17 0)
(1.04222e-16 0 0)
(-3.59159e-17 -6.50519e-18 0)
(1.3023e-17 -1.92987e-16 0)
(1.96228e-16 -8.67359e-18 0)
(-2.53366e-19 0 0)
(-1.78235e-16 0 0)
(7.36306e-17 0 0)
(3.92807e-15 4.11995e-17 0)
(1.19625e-10 -1.05384e-15 0)
(7.1497e-07 8.02307e-17 0)
(0.000292566 2.10383e-16 0)
(0.012944 6.22403e-16 0)
(0.11114 -4.73829e-16 0)
(0.383924 -8.68483e-16 0)
(0.769594 -7.86447e-17 0)
(0.766662 4.36271e-16 0)
(0.288964 4.29531e-16 0)
(0.0183776 -7.81434e-17 0)
(9.47365e-05 -1.50693e-16 0)
(2.66425e-08 -3.49112e-16 0)
(6.83665e-13 7.91465e-17 0)
(-8.50985e-17 0 0)
(1.08585e-17 0 0)
(-6.46599e-24 0 0)
(-1.58619e-17 0 0)
(3.80032e-21 0 0)
(-6.55712e-17 -6.50519e-17 0)
(3.56526e-17 0 0)
(-5.35823e-47 -2.1684e-18 0)
(-3.67197e-17 0 0)
(6.53413e-17 -9.32411e-17 0)
(1.19244e-17 -7.48097e-17 0)
(-6.25599e-17 5.74625e-17 0)
(3.97722e-17 -4.66205e-17 0)
(-1.0669e-26 0 0)
(-4.79089e-17 -7.04729e-17 0)
(5.94786e-17 0 0)
(4.38458e-17 3.36101e-17 0)
(-5.96687e-17 -7.04729e-17 0)
(-8.37182e-17 2.1684e-18 0)
(1.67697e-17 -5.74625e-17 0)
(1.0612e-16 -2.1684e-18 0)
(-1.56662e-17 0 0)
(-9.87517e-17 -9.8662e-17 0)
(1.12269e-17 -6.83045e-17 0)
(5.90305e-55 -1.0842e-18 0)
(6.94828e-17 -5.20415e-17 0)
(1.67662e-17 -1.04083e-16 0)
(1.76322e-17 -1.0842e-18 0)
(8.26952e-17 0 0)
(-1.88561e-17 -2.1684e-18 0)
(9.96498e-19 -1.04083e-16 0)
(7.61775e-18 0 0)
(-8.67872e-17 9.32411e-17 0)
(-7.20868e-17 1.05167e-16 0)
(3.29817e-17 2.1684e-18 0)
(5.69672e-19 0 0)
(-4.98702e-17 -6.72203e-17 0)
(6.55399e-17 -8.99885e-17 0)
(9.52169e-17 0 0)
(-1.18213e-17 -1.0842e-18 0)
(-1.71464e-17 2.1684e-18 0)
(-2.86184e-17 2.1684e-18 0)
(-1.40946e-16 2.1684e-18 0)
(8.02307e-17 8.67359e-18 0)
(-1.35756e-32 1.92987e-16 0)
(-3.59659e-17 1.0842e-17 0)
(-4.21625e-17 1.90819e-16 0)
(-4.34755e-17 9.10727e-17 0)
(1.20748e-16 2.05998e-16 0)
(-1.20681e-64 1.97324e-16 0)
(2.91516e-21 1.51788e-17 0)
(1.297e-17 1.97324e-16 0)
(-2.26272e-17 4.33679e-18 0)
(-1.68835e-16 -2.08166e-16 0)
(4.23269e-17 -2.1684e-18 0)
(-9.08302e-17 1.86482e-16 0)
(-4.39538e-17 1.97324e-16 0)
(1.01169e-16 2.1684e-18 0)
(5.00381e-17 -1.73472e-17 0)
(3.0854e-17 0 0)
(-1.16316e-16 1.95156e-16 0)
(-7.14498e-32 1.73472e-17 0)
(9.25872e-17 1.97324e-16 0)
(-9.28158e-17 1.71303e-16 0)
(-3.86794e-17 6.28835e-17 0)
(3.52944e-17 1.51788e-17 0)
(1.20795e-16 1.95156e-16 0)
(-2.80889e-21 2.03829e-16 0)
(-3.68095e-17 1.97324e-16 0)
(-4.93885e-17 8.67359e-18 0)
(3.16391e-17 1.51788e-17 0)
(-1.53704e-16 1.99492e-16 0)
(-6.79923e-17 2.1684e-18 0)
(1.59934e-16 0 0)
(5.92325e-18 0 0)
(6.93135e-17 1.0842e-17 0)
(-2.88805e-20 1.90819e-16 0)
(-1.19878e-16 1.0842e-17 0)
(4.11003e-21 9.32411e-17 0)
(6.93484e-17 0 0)
(-1.15862e-16 1.79977e-16 0)
(-3.58703e-17 -3.68627e-17 0)
(1.68424e-16 -1.0842e-17 0)
(-1.63505e-18 -1.95156e-16 0)
(-1.67451e-17 -1.0842e-16 0)
(2.84477e-17 0 0)
(3.75078e-15 -1.84314e-16 0)
(1.19624e-10 -3.42607e-16 0)
(7.1497e-07 8.30496e-16 0)
(0.000292566 -1.85658e-15 0)
(0.012944 1.46835e-16 0)
(0.11114 8.15706e-17 0)
(0.383924 -1.27278e-16 0)
(0.769594 1.32335e-17 0)
(0.766662 -5.07017e-16 0)
(0.288964 -1.85322e-16 0)
(0.0183776 -3.29701e-16 0)
(9.47365e-05 9.32344e-17 0)
(2.66425e-08 3.36101e-16 0)
(6.83491e-13 -3.90311e-17 0)
(-8.32936e-18 -3.68627e-17 0)
(8.06898e-17 6.61361e-17 0)
(-1.37152e-21 1.0842e-18 0)
(-8.76204e-17 1.04083e-16 0)
(3.36523e-19 2.1684e-18 0)
(-2.19003e-17 6.50519e-17 0)
(-1.37354e-17 0 0)
(-3.17697e-45 -1.05167e-16 0)
(1.37266e-17 0 0)
(-7.47457e-23 4.44521e-17 0)
(7.40609e-17 -5.85467e-17 0)
(8.30027e-18 0 0)
(-6.71638e-17 7.37255e-17 0)
(-7.42423e-23 0 0)
(-1.8793e-17 7.04729e-17 0)
(6.95278e-17 0 0)
(1.46061e-17 -7.04729e-17 0)
(-7.44752e-17 0 0)
(9.41041e-23 1.04083e-16 0)
(6.95826e-17 5.74625e-17 0)
(6.36092e-17 0 0)
(-6.10192e-17 -6.17993e-17 0)
(-6.03004e-17 5.31257e-17 0)
(5.29e-17 6.83045e-17 0)
(-1.82763e-52 0 0)
(-3.48583e-17 5.20415e-17 0)
(6.80154e-17 -1.0842e-18 0)
(8.35742e-17 0 0)
(6.1281e-19 0 0)
(-8.95754e-17 -1.07336e-16 0)
(9.99856e-18 0 0)
(6.82664e-17 0 0)
(1.89311e-20 -4.66205e-17 0)
(-8.59238e-17 6.07151e-17 0)
(-7.07063e-17 0 0)
(2.02552e-17 0 0)
(-3.64001e-20 6.72203e-17 0)
(7.06906e-17 5.85467e-17 0)
(6.32312e-17 -7.58939e-17 0)
(-6.52655e-17 -1.04083e-16 0)
(-6.93946e-17 -1.0842e-18 0)
(-6.3656e-19 0 0)
(-4.87889e-17 0 0)
(2.64544e-16 -1.51788e-17 0)
(-5.04765e-30 0 0)
(-1.59212e-16 -1.51788e-17 0)
(-1.32239e-16 8.67359e-18 0)
(1.15869e-16 2.1684e-18 0)
(1.6946e-16 0 0)
(-2.22269e-62 0 0)
(-6.45201e-20 -4.33679e-18 0)
(-1.6584e-16 -1.0842e-17 0)
(-1.62818e-16 -1.99492e-16 0)
(3.22524e-17 -2.1684e-18 0)
(1.77071e-16 2.10334e-16 0)
(-2.32118e-17 0 0)
(-1.65664e-16 1.51788e-17 0)
(-1.7361e-17 -4.33679e-18 0)
(1.99794e-16 2.1684e-18 0)
(1.18022e-16 -1.0842e-17 0)
(-1.25512e-16 0 0)
(-2.44402e-30 2.1684e-18 0)
(9.81064e-17 0 0)
(-1.04228e-16 0 0)
(-1.2461e-16 4.33679e-18 0)
(1.07954e-16 2.1684e-18 0)
(1.69671e-16 0 0)
(-5.97921e-20 0 0)
(-1.69937e-16 0 0)
(-1.91799e-16 0 0)
(1.93295e-16 0 0)
(4.98725e-18 0 0)
(-2.88149e-16 -3.68627e-17 0)
(-2.52962e-17 0 0)
(4.84949e-17 0 0)
(2.89922e-16 0 0)
(-4.62833e-19 0 0)
(-1.99263e-16 0 0)
(3.10509e-20 1.51788e-17 0)
(1.99717e-16 0 0)
(-4.71149e-19 0 0)
(-1.78303e-16 2.4286e-16 0)
(1.35169e-28 3.90311e-17 0)
(-2.99483e-18 -6.50519e-18 0)
(-8.509e-17 0 0)
(6.54114e-17 0 0)
(3.80113e-15 1.0842e-17 0)
(1.19624e-10 9.25905e-16 0)
(7.1497e-07 -1.95156e-16 0)
(0.000292566 -5.94279e-16 0)
(0.012944 -3.41884e-16 0)
(0.11114 -1.31952e-17 0)
(0.383924 1.19791e-16 0)
(0.769594 1.32335e-17 0)
(0.766662 4.77259e-17 0)
(0.288964 6.14853e-17 0)
(0.0183776 -6.42274e-18 0)
(9.47365e-05 -7.03595e-16 0)
(2.66425e-08 -3.0466e-16 0)
(6.83667e-13 -8.45675e-17 0)
(9.08458e-17 7.80623e-17 0)
(5.74847e-17 1.02999e-16 0)
(-5.77655e-19 2.1684e-18 0)
(-2.01878e-18 7.48097e-17 0)
(1.30299e-18 6.83045e-17 0)
(-1.01414e-16 1.05167e-16 0)
(-1.04028e-16 3.25259e-18 0)
(-3.50048e-43 0 0)
(1.02943e-16 2.1684e-18 0)
(1.08035e-18 1.04083e-16 0)
(-5.17226e-17 1.0842e-18 0)
(5.16125e-17 -3.36101e-17 0)
(4.73722e-17 7.04729e-17 0)
(-3.97489e-21 2.1684e-18 0)
(-8.82751e-17 1.05167e-16 0)
(-4.37927e-17 2.1684e-18 0)
(9.17912e-17 1.0842e-18 0)
(5.07603e-17 1.04083e-16 0)
(1.17986e-21 3.25259e-18 0)
(-3.3513e-17 1.04083e-16 0)
(-7.10353e-17 1.0842e-18 0)
(4.19258e-17 0 0)
(5.6054e-17 1.05167e-16 0)
(-4.79923e-17 1.04083e-16 0)
(4.73062e-50 2.1684e-18 0)
(4.90156e-17 1.04083e-16 0)
(-5.40908e-17 5.20415e-17 0)
(-1.14641e-18 -5.20415e-17 0)
(2.17457e-17 0 0)
(1.20713e-18 2.1684e-18 0)
(5.41202e-17 1.05167e-16 0)
(-5.76668e-17 0 0)
(2.15002e-18 -8.45675e-17 0)
(-2.13765e-33 0 0)
(-7.50544e-18 2.1684e-18 0)
(9.41867e-17 0 0)
(1.97231e-17 1.05167e-16 0)
(-6.43081e-17 1.05167e-16 0)
(-4.80147e-17 0 0)