/*--------------------------------*- C++ -*----------------------------------*\
| =========                 |                                                 |
| \\      /  F ield         | OpenFOAM: The Open Source CFD Toolbox           |
|  \\    /   O peration     | Version:  4.1                                   |
|   \\  /    A nd           | Web:      www.OpenFOAM.org                      |
|    \\/     M anipulation  |                                                 |
\*---------------------------------------------------------------------------*/
FoamFile
{
    version     2.0;
    format      ascii;
    class       volVectorField;
    location    "0.15";
    object      U;
}
// * * * * * * * * * * * * * * * * * * * * * * * * * * * * * * * * * * * * * //

dimensions      [0 1 -1 0 0 0 0];

internalField   nonuniform List<vector> 
10000
(
(0 0 0)
(7.08962e-17 0 0)
(2.16126e-16 0 0)
(4.89094e-17 1.17093e-16 0)
(-9.53365e-17 0 0)
(-9.00897e-17 0 0)
(-1.33249e-16 0 0)
(-1.24148e-17 0 0)
(-1.12753e-30 0 0)
(1.05112e-16 1.17093e-16 0)
(3.10928e-16 0 0)
(7.74581e-18 -1.49619e-16 0)
(-3.02256e-16 0 0)
(-1.15262e-17 0 0)
(1.69286e-16 0 0)
(-1.0461e-17 1.25767e-16 0)
(-1.91298e-16 0 0)
(-4.02384e-17 0 0)
(-1.32926e-18 0 0)
(-3.05231e-17 0 0)
(4.30835e-20 0 0)
(1.55712e-17 9.54094e-17 0)
(5.43534e-18 0 0)
(7.86851e-17 0 0)
(-1.70151e-17 0 0)
(-1.40678e-16 0 0)
(-3.04643e-16 -1.17093e-16 0)
(-2.29354e-17 8.67359e-17 0)
(2.83936e-16 0 0)
(3.42534e-17 1.36609e-16 0)
(-1.71543e-16 0 0)
(-3.98935e-20 -1.06251e-16 0)
(8.56469e-17 -2.1684e-18 0)
(-9.66139e-17 0 0)
(4.1289e-16 1.04083e-16 0)
(9.93534e-12 1.75206e-15 0)
(3.46226e-08 4.27174e-16 0)
(1.2721e-05 -2.38526e-16 0)
(0.000702536 -5.74967e-16 0)
(0.00886965 1.47101e-14 0)
(0.0404196 4.89718e-15 0)
(0.0999284 1.86607e-14 0)
(0.177311 7.02947e-15 0)
(0.263497 7.06143e-15 0)
(0.354198 3.62192e-15 0)
(0.447821 -8.72754e-15 0)
(0.543819 -8.00075e-15 0)
(0.642669 5.14643e-15 0)
(0.74242 1.10301e-14 0)
(0.841483 -5.43826e-15 0)
(0.918052 6.92679e-16 0)
(0.947762 3.5762e-15 0)
(0.923293 4.73367e-15 0)
(0.924976 6.1364e-15 0)
(0.926663 4.41324e-15 0)
(0.928049 3.69079e-15 0)
(0.930846 2.05985e-15 0)
(0.929851 2.63547e-15 0)
(0.927882 2.35966e-16 0)
(0.947252 1.54507e-15 0)
(0.952343 9.77422e-16 0)
(0.931218 -1.33454e-17 0)
(0.807661 -1.2358e-15 0)
(0.406237 7.5916e-16 0)
(0.0399111 -7.37573e-15 0)
(0.000338344 -8.68179e-16 0)
(1.83524e-07 0 0)
(5.74884e-12 2.05998e-17 0)
(3.26119e-16 0 0)
(2.81751e-16 0 0)
(7.29209e-17 0 0)
(-1.32094e-16 0 0)
(1.18869e-17 1.57209e-16 0)
(-6.77616e-17 4.27174e-16 0)
(-1.78961e-16 1.87566e-16 0)
(4.47074e-17 0 0)
(2.54304e-16 0 0)
(5.38947e-17 0 0)
(-1.36087e-16 9.54094e-17 0)
(5.35671e-17 0 0)
(2.54458e-16 0 0)
(5.02172e-17 0 0)
(-1.53838e-16 0 0)
(4.73782e-17 0 0)
(2.40898e-16 8.99885e-17 0)
(7.08922e-17 0 0)
(-1.335e-16 0 0)
(-2.71113e-17 0 0)
(-2.2369e-17 0 0)
(-9.26983e-17 0 0)
(-1.69591e-16 -6.50519e-18 0)
(-3.22871e-16 0 0)
(-1.25744e-16 0 0)
(6.03679e-17 0 0)
(2.55122e-16 0 0)
(5.10598e-17 0 0)
(-1.44156e-16 8.45675e-17 0)
(-1.21799e-16 0 0)
(-3.89427e-17 0 0)
(0 0 0)
(0 0 0)
(1.20336e-16 0 0)
(2.55851e-16 1.19262e-16 0)
(6.29773e-17 3.01407e-16 0)
(-1.34983e-16 1.19262e-16 0)
(-2.13388e-16 2.47197e-16 0)
(-2.32236e-16 4.98731e-17 0)
(-3.12602e-17 0 0)
(-1.56678e-26 0 0)
(1.2184e-16 0 0)
(3.70084e-16 0 0)
(4.96837e-17 0 0)
(-2.70295e-16 0 0)
(8.08252e-18 0 0)
(1.62561e-16 1.27935e-16 0)
(-2.66068e-17 3.10081e-16 0)
(-2.13919e-16 1.27935e-16 0)
(-8.34539e-17 0 0)
(-9.88023e-18 0 0)
(-9.98138e-17 0 0)
(3.10437e-19 0 0)
(3.45834e-17 2.1684e-18 0)
(1.92661e-17 0 0)
(1.40874e-16 6.93887e-17 0)
(-6.19338e-17 2.2985e-16 0)
(-2.67969e-16 3.46943e-17 0)
(-2.47014e-16 6.72203e-17 0)
(-7.87683e-18 2.7105e-16 0)
(2.09179e-16 8.89043e-17 0)
(3.99644e-17 0 0)
(-1.81661e-16 0 0)
(-2.67817e-19 6.93887e-17 0)
(1.81664e-16 -6.50519e-18 0)
(8.52073e-18 1.73472e-17 0)
(4.34516e-16 2.19008e-16 0)
(9.93731e-12 1.44849e-15 0)
(3.46226e-08 1.41813e-15 0)
(1.2721e-05 4.31516e-16 0)
(0.000702536 -1.20418e-15 0)
(0.00886965 2.19701e-14 0)
(0.0404196 -2.94257e-14 0)
(0.0999284 3.24861e-14 0)
(0.177311 2.53642e-15 0)
(0.263497 -5.77914e-15 0)
(0.354198 5.87694e-15 0)
(0.447821 -2.07048e-15 0)
(0.543819 -2.39618e-15 0)
(0.642669 -1.18831e-15 0)
(0.74242 5.3345e-15 0)
(0.841483 1.89446e-15 0)
(0.918052 5.20043e-15 0)
(0.947762 4.25739e-15 0)
(0.923293 3.02998e-15 0)
(0.924976 6.39218e-15 0)
(0.926663 4.24912e-15 0)
(0.928049 3.65756e-15 0)
(0.930846 2.37096e-15 0)
(0.929851 -2.74357e-16 0)
(0.927882 -3.11898e-16 0)
(0.947252 1.56347e-15 0)
(0.952343 1.48749e-15 0)
(0.931218 1.90018e-15 0)
(0.807661 -7.1023e-17 0)
(0.406237 1.89516e-15 0)
(0.0399111 -8.97332e-16 0)
(0.000338344 -3.82606e-16 0)
(1.83524e-07 3.79469e-17 0)
(5.74878e-12 1.95156e-17 0)
(3.36921e-16 3.14417e-17 0)
(2.93287e-16 1.13841e-16 0)
(1.08268e-16 1.51788e-17 0)
(-8.88334e-17 2.60208e-17 0)
(1.66519e-17 1.2902e-16 0)
(-8.00308e-17 2.32018e-16 0)
(-1.82347e-16 1.31188e-16 0)
(2.09898e-17 1.0842e-16 0)
(2.10548e-16 0 0)
(1.17428e-17 2.81892e-17 0)
(-1.5881e-16 1.98408e-16 0)
(1.27338e-17 2.81892e-17 0)
(2.1402e-16 0 0)
(3.46448e-17 0 0)
(-1.59407e-16 7.58939e-18 0)
(3.71799e-17 1.24683e-16 0)
(2.44623e-16 1.91903e-16 0)
(7.11717e-17 1.73472e-17 0)
(-1.56169e-16 0 0)
(-5.50696e-17 0 0)
(-5.4202e-17 0 0)
(-1.45938e-16 -6.50519e-18 0)
(-1.14118e-16 -8.13149e-17 0)
(-2.27602e-16 6.50519e-17 0)
(-1.05927e-16 1.90819e-16 0)
(7.16641e-17 2.7105e-17 0)
(2.74156e-16 0 0)
(6.27053e-17 1.95156e-17 0)
(-1.42998e-16 1.87566e-16 0)
(-2.0466e-16 1.6263e-16 0)
(-1.1585e-16 9.43252e-17 0)
(-3.79469e-17 1.81061e-16 0)
(0 0 0)
(1.86432e-16 0 0)
(4.83113e-16 0 0)
(8.85141e-17 8.02307e-17 0)
(-3.80487e-16 3.44775e-16 0)
(-3.23776e-16 5.70288e-16 0)
(-2.6271e-16 2.40692e-16 0)
(-4.45261e-17 0 0)
(-3.08194e-23 0 0)
(1.64742e-16 0 0)
(4.49649e-16 0 0)
(1.187e-16 4.33679e-18 0)
(-1.52994e-16 8.67359e-18 0)
(6.33598e-17 2.19008e-16 0)
(2.87638e-16 6.72203e-17 0)
(-3.81609e-17 7.37255e-17 0)
(-3.83379e-16 0 0)
(-1.33029e-16 0 0)
(-3.8906e-17 1.01915e-16 0)
(-2.10549e-16 0 0)
(1.47611e-18 0 0)
(1.25313e-16 0 0)
(5.57185e-17 7.58939e-17 0)
(1.45862e-16 3.05744e-16 0)
(-8.99234e-17 5.42099e-16 0)
(-3.63373e-16 2.73218e-16 0)
(-3.57152e-16 0 0)
(-1.72821e-17 4.98731e-17 0)
(2.89193e-16 0 0)
(7.47996e-17 0 0)
(-1.25276e-21 1.06251e-16 0)
(-1.01641e-18 3.62122e-16 0)
(1.04055e-20 1.79977e-16 0)
(-6.35533e-18 1.79977e-16 0)
(5.9916e-16 4.51026e-16 0)
(9.93759e-12 5.20415e-17 0)
(3.46226e-08 5.30823e-15 0)
(1.2721e-05 2.62596e-15 0)
(0.000702536 2.38666e-16 0)
(0.00886965 2.07729e-14 0)
(0.0404196 -3.29673e-14 0)
(0.0999284 2.80855e-14 0)
(0.177311 1.71663e-15 0)
(0.263497 -1.44581e-14 0)
(0.354198 8.38317e-15 0)
(0.447821 -2.05922e-15 0)
(0.543819 1.68418e-15 0)
(0.642669 -2.06725e-15 0)
(0.74242 4.92448e-15 0)
(0.841483 2.14075e-15 0)
(0.918052 1.77853e-15 0)
(0.947762 2.85407e-15 0)
(0.923293 1.45539e-15 0)
(0.924976 7.46729e-15 0)
(0.926663 3.6709e-15 0)
(0.928049 2.17978e-15 0)
(0.930846 1.43226e-15 0)
(0.929851 -1.00149e-15 0)
(0.927882 7.00689e-16 0)
(0.947252 -1.37152e-15 0)
(0.952343 1.14225e-15 0)
(0.931218 3.04173e-15 0)
(0.807661 3.53183e-15 0)
(0.406237 4.9177e-15 0)
(0.0399111 7.86214e-16 0)
(0.000338344 1.57594e-15 0)
(1.83524e-07 1.36609e-16 0)
(5.74882e-12 -2.81892e-17 0)
(3.04303e-16 2.19008e-16 0)
(2.12253e-16 3.40438e-16 0)
(4.39301e-17 1.73472e-16 0)
(-1.53215e-16 1.5504e-16 0)
(-2.44043e-17 1.74556e-16 0)
(2.58679e-17 5.31257e-17 0)
(-6.67285e-17 1.69135e-16 0)
(5.39818e-17 2.90565e-16 0)
(1.65153e-16 1.94071e-16 0)
(-8.25862e-18 8.78201e-17 0)
(-1.94791e-16 1.18178e-16 0)
(-7.25241e-17 1.8323e-16 0)
(1.12742e-16 1.52872e-16 0)
(1.17657e-16 9.43252e-17 0)
(1.25513e-17 2.1684e-16 0)
(1.19292e-16 3.18754e-16 0)
(1.62013e-16 1.27935e-16 0)
(-1.42518e-17 -8.67359e-17 0)
(-1.84372e-16 -4.55363e-17 0)
(-8.35528e-17 5.74625e-17 0)
(-8.21895e-17 -4.44521e-17 0)
(-1.83501e-16 5.96309e-17 0)
(-8.21822e-17 3.03576e-17 0)
(-7.3266e-17 2.22261e-16 0)
(-1.22473e-16 3.90311e-16 0)
(-1.3963e-17 2.62376e-16 0)
(1.90706e-16 1.01915e-16 0)
(1.21487e-16 -3.79469e-17 0)
(-8.58797e-17 1.51788e-16 0)
(-2.88765e-16 3.53449e-16 0)
(-1.86332e-16 2.61292e-16 0)
(-2.21176e-16 3.64291e-16 0)
(-2.1684e-18 -2.1684e-18 0)
(2.31925e-16 -2.1684e-18 0)
(5.44465e-16 -2.1684e-18 0)
(2.02607e-16 3.90311e-17 0)
(-2.1045e-16 2.86228e-16 0)
(-5.41172e-16 1.49619e-16 0)
(-2.49219e-16 -2.1684e-18 0)
(-2.53724e-17 -2.1684e-18 0)
(-8.51127e-21 0 0)
(7.10316e-17 0 0)
(3.05889e-16 -4.33679e-18 0)
(1.23299e-16 -1.79977e-16 0)
(1.70571e-16 1.7564e-16 0)
(1.05981e-16 5.29089e-16 0)
(1.97138e-16 2.47197e-16 0)
(-2.53553e-17 0 0)
(-2.31336e-16 -2.1684e-18 0)
(-1.42657e-17 1.17093e-16 0)
(-6.44852e-17 3.49112e-16 0)
(-2.47092e-16 1.73472e-16 0)
(4.43763e-18 0 0)
(2.40608e-16 1.32272e-16 0)
(5.74399e-17 3.14417e-16 0)
(2.27826e-16 1.30104e-16 0)
(-1.30427e-16 1.45283e-16 0)
(-4.88985e-16 5.42099e-17 0)
(-4.48938e-16 -4.33679e-18 0)
(-3.383e-17 0 0)
(3.50738e-16 -2.1684e-18 0)
(9.59657e-17 0 0)
(-4.57793e-21 0 0)
(-3.09045e-18 1.06251e-16 0)
(3.60042e-20 0 0)
(-1.06444e-16 -4.81481e-34 0)
(7.20638e-16 1.79977e-16 0)
(9.93711e-12 2.27682e-16 0)
(3.46226e-08 3.79903e-15 0)
(1.2721e-05 1.11457e-14 0)
(0.000702536 -5.64769e-15 0)
(0.00886965 1.63815e-14 0)
(0.0404196 -2.59335e-14 0)
(0.0999284 1.75906e-14 0)
(0.177311 6.53557e-15 0)
(0.263497 -1.95463e-14 0)
(0.354198 1.18159e-14 0)
(0.447821 -9.04125e-16 0)
(0.543819 1.06009e-15 0)
(0.642669 -1.12566e-15 0)
(0.74242 1.23218e-15 0)
(0.841483 -3.14343e-15 0)
(0.918052 -2.72169e-16 0)
(0.947762 1.73545e-15 0)
(0.923293 4.29412e-15 0)
(0.924976 4.26845e-15 0)
(0.926663 2.68156e-15 0)
(0.928049 1.51171e-15 0)
(0.930846 1.03626e-15 0)
(0.929851 1.89271e-16 0)
(0.927882 -5.66126e-16 0)
(0.947252 -8.02622e-16 0)
(0.952343 4.86952e-16 0)
(0.931218 1.01271e-15 0)
(0.807661 3.69092e-15 0)
(0.406237 6.13752e-15 0)
(0.0399111 -1.97497e-15 0)
(0.000338344 1.2161e-15 0)
(1.83524e-07 1.11239e-15 0)
(5.74919e-12 2.01661e-16 0)
(4.34523e-16 3.33933e-16 0)
(4.68456e-17 3.93564e-16 0)
(-1.22789e-16 2.30934e-16 0)
(-2.20391e-16 3.33933e-16 0)
(-5.32677e-17 3.12249e-16 0)
(3.93721e-17 1.65882e-16 0)
(9.93853e-17 2.69965e-16 0)
(2.57867e-17 3.12249e-16 0)
(8.48465e-17 3.90311e-16 0)
(-2.80217e-17 2.30934e-16 0)
(-2.00598e-16 2.23345e-16 0)
(-3.99943e-17 3.83806e-16 0)
(1.12071e-16 4.19585e-16 0)
(2.56052e-16 2.77555e-16 0)
(2.06514e-16 4.17416e-16 0)
(-1.33708e-17 4.07659e-16 0)
(-1.30821e-16 1.69135e-16 0)
(-2.21503e-17 -3.25259e-18 0)
(2.47905e-17 9.54094e-17 0)
(-9.12914e-17 1.35525e-16 0)
(-1.53892e-16 1.84314e-17 0)
(-8.11945e-17 1.19262e-16 0)
(4.60718e-18 1.73472e-17 0)
(3.40222e-17 8.99885e-17 0)
(-1.53212e-16 2.64544e-16 0)
(-1.6575e-16 4.60784e-16 0)
(-1.76536e-17 3.15502e-16 0)
(-5.68905e-17 1.43114e-16 0)
(3.35672e-17 3.36101e-17 0)
(-1.2024e-16 1.86482e-16 0)
(-2.63871e-16 1.94071e-16 0)
(-4.43437e-16 1.66967e-16 0)
(-2.1684e-18 2.1684e-18 0)
(2.96619e-16 2.1684e-18 0)
(6.37816e-16 2.1684e-18 0)
(2.43594e-16 1.66967e-16 0)
(-4.22911e-16 -1.43114e-16 0)
(-4.97488e-16 -5.44268e-16 0)
(-1.88473e-16 -2.40692e-16 0)
(-2.00488e-18 2.1684e-18 0)
(-4.59887e-19 0 0)
(1.07436e-16 -2.1684e-18 0)
(3.61365e-16 -6.07151e-17 0)
(1.8137e-16 1.2143e-16 0)
(3.63913e-16 0 0)
(1.80812e-16 1.79977e-16 0)
(2.25099e-16 4.33679e-18 0)
(-4.02123e-17 9.10727e-17 0)
(-3.23138e-16 2.1684e-18 0)
(-5.96106e-17 2.1684e-18 0)
(-8.67438e-17 -1.51788e-17 0)
(-2.86667e-16 0 0)
(3.86453e-17 0 0)
(3.04302e-16 2.60208e-16 0)
(4.61782e-17 3.46943e-17 0)
(-3.57423e-17 -7.80623e-17 0)
(-4.79279e-17 -3.46943e-16 0)
(-2.30355e-16 -1.58293e-16 0)
(-2.05525e-16 -1.14925e-16 0)
(4.84914e-17 0 0)
(9.9279e-17 2.1684e-18 0)
(4.78831e-22 0 0)
(-2.34828e-19 0 0)
(-2.07275e-17 0 0)
(7.75279e-19 0 0)
(5.84365e-17 2.1684e-18 0)
(7.21695e-16 1.95156e-17 0)
(9.93791e-12 9.67105e-16 0)
(3.46226e-08 -1.49836e-15 0)
(1.2721e-05 2.11768e-14 0)
(0.000702536 -1.37385e-14 0)
(0.00886965 1.58702e-14 0)
(0.0404196 -1.35783e-14 0)
(0.0999284 5.17893e-15 0)
(0.177311 1.52198e-14 0)
(0.263497 -2.28018e-14 0)
(0.354198 1.3669e-14 0)
(0.447821 -1.00387e-15 0)
(0.543819 -2.57374e-15 0)
(0.642669 -1.21433e-16 0)
(0.74242 -8.41282e-16 0)
(0.841483 -3.04421e-15 0)
(0.918052 -1.33287e-15 0)
(0.947762 -1.7673e-15 0)
(0.923293 2.16268e-15 0)
(0.924976 -1.65254e-15 0)
(0.926663 7.75823e-16 0)
(0.928049 1.93144e-15 0)
(0.930846 -2.64251e-16 0)
(0.929851 2.42884e-15 0)
(0.927882 -3.83505e-15 0)
(0.947252 -5.86799e-16 0)
(0.952343 5.23135e-16 0)
(0.931218 -6.29288e-16 0)
(0.807661 4.66877e-15 0)
(0.406237 1.02553e-15 0)
(0.0399111 4.13024e-16 0)
(0.000338344 -1.91303e-15 0)
(1.83524e-07 2.52943e-15 0)
(5.7489e-12 5.43183e-16 0)
(2.93673e-16 1.2902e-16 0)
(1.00204e-16 1.92987e-16 0)
(-1.15073e-18 8.99885e-17 0)
(-1.02202e-16 1.91903e-16 0)
(-1.55847e-17 1.09504e-16 0)
(6.94965e-17 1.74556e-16 0)
(-2.75652e-17 1.89735e-16 0)
(5.49038e-17 1.05167e-16 0)
(1.44696e-16 2.0925e-16 0)
(4.27031e-17 1.07336e-16 0)
(-5.13692e-17 2.35271e-16 0)
(8.43997e-17 3.85975e-16 0)
(1.55284e-17 5.09573e-16 0)
(1.35133e-16 3.94648e-16 0)
(2.7491e-17 2.39608e-16 0)
(-8.01001e-17 2.05998e-16 0)
(-1.477e-16 2.66713e-16 0)
(-3.00128e-17 2.13587e-16 0)
(1.69419e-17 2.72134e-16 0)
(-1.92749e-16 1.30104e-16 0)
(-3.24248e-16 1.45283e-16 0)
(-2.23706e-16 -3.79469e-17 0)
(4.1431e-18 -9.75778e-17 0)
(2.1619e-16 -1.01915e-16 0)
(1.02508e-16 -3.46943e-17 0)
(5.75484e-17 2.56955e-16 0)
(3.90115e-17 4.78131e-16 0)
(-1.26676e-16 3.53449e-16 0)
(-1.61864e-16 6.72203e-17 0)
(-2.27926e-16 -1.35525e-16 0)
(-3.64756e-16 -6.39677e-17 0)
(-4.95479e-16 -1.91903e-16 0)
(0 0 0)
(1.67229e-16 0 0)
(4.50467e-16 -4.98731e-17 0)
(1.98614e-17 -2.21176e-16 0)
(-5.42155e-16 -5.33426e-16 0)
(-2.00124e-16 -2.40692e-16 0)
(-4.40801e-17 -2.1684e-17 0)
(3.38586e-18 0 0)
(-6.83247e-18 0 0)
(1.32454e-16 2.1684e-18 0)
(3.95824e-16 1.23599e-16 0)
(1.8804e-16 3.10081e-16 0)
(-4.2374e-17 7.37255e-17 0)
(1.03468e-16 -1.73472e-16 0)
(2.96694e-16 -6.50519e-17 0)
(-5.53642e-17 -9.32411e-17 0)
(-4.03085e-16 0 0)
(-1.11638e-16 -9.97462e-17 0)
(-4.82505e-18 -3.77301e-16 0)
(-5.81993e-17 -1.36609e-16 0)
(1.80105e-16 0 0)
(5.01807e-17 1.51788e-17 0)
(-1.76597e-16 -2.23345e-16 0)
(-1.98489e-17 -4.33679e-17 0)
(6.98733e-20 -9.75778e-17 0)
(-4.30966e-18 0 0)
(-2.21307e-19 1.19262e-16 0)
(4.1863e-19 0 0)
(3.14361e-18 0 0)
(-5.41835e-22 0 0)
(-3.79228e-18 0 0)
(-8.77399e-17 0 0)
(5.09559e-18 0 0)
(1.33974e-16 0 0)
(6.89207e-16 -6.50519e-18 0)
(9.93902e-12 -4.77047e-17 0)
(3.46226e-08 -1.66316e-15 0)
(1.2721e-05 1.39733e-14 0)
(0.000702536 -8.66139e-15 0)
(0.00886965 7.87831e-15 0)
(0.0404196 -6.03283e-15 0)
(0.0999284 -6.64816e-15 0)
(0.177311 1.87692e-14 0)
(0.263497 -2.37584e-14 0)
(0.354198 1.05894e-14 0)
(0.447821 -2.19435e-15 0)
(0.543819 -3.836e-15 0)
(0.642669 -8.38463e-17 0)
(0.74242 -6.24588e-16 0)
(0.841483 -4.64569e-16 0)
(0.918052 -2.51237e-15 0)
(0.947762 -2.753e-15 0)
(0.923293 -1.77349e-15 0)
(0.924976 -1.95902e-15 0)
(0.926663 1.16373e-16 0)
(0.928049 5.98459e-16 0)
(0.930846 -1.87664e-15 0)
(0.929851 1.49116e-15 0)
(0.927882 -5.7617e-15 0)
(0.947252 -1.74448e-15 0)
(0.952343 -1.95484e-16 0)
(0.931218 -4.99427e-16 0)
(0.807661 5.70911e-15 0)
(0.406237 -1.44311e-15 0)
(0.0399111 3.17945e-15 0)
(0.000338344 -3.00015e-15 0)
(1.83524e-07 1.14166e-15 0)
(5.74815e-12 1.31188e-16 0)
(3.38671e-16 -8.02307e-17 0)
(1.17817e-16 -1.19262e-17 0)
(2.66034e-18 0 0)
(-1.17642e-16 4.33679e-18 0)
(-1.3963e-17 -9.54094e-17 0)
(9.14914e-17 9.75778e-18 0)
(-1.14736e-17 6.50519e-18 0)
(9.18203e-17 -9.75778e-17 0)
(1.95659e-16 3.25259e-18 0)
(6.77398e-17 0 0)
(3.10668e-17 4.44521e-17 0)
(1.29677e-16 1.66967e-16 0)
(1.78843e-17 2.80807e-16 0)
(1.34787e-20 2.14671e-16 0)
(-2.68621e-17 2.92734e-17 0)
(-1.34398e-16 0 0)
(3.93461e-18 1.11672e-16 0)
(1.33617e-16 2.92734e-16 0)
(1.23556e-17 1.06251e-16 0)
(-2.9273e-16 0 0)
(-5.08892e-16 7.69781e-17 0)
(-3.57216e-16 -7.58939e-17 0)
(-1.1606e-16 1.95156e-17 0)
(1.12784e-16 -2.20092e-16 0)
(3.34509e-16 -2.47197e-16 0)
(3.13748e-16 2.1684e-18 0)
(6.26934e-17 2.54787e-16 0)
(-1.989e-16 1.61546e-16 0)
(-3.71626e-16 -9.43252e-17 0)
(-3.31961e-16 -3.0466e-16 0)
(-2.29978e-16 -2.76471e-16 0)
(-3.0466e-16 -3.78385e-16 0)
(0 0 0)
(4.10651e-17 -2.81892e-17 0)
(1.6168e-16 -3.23091e-16 0)
(-4.41013e-17 -5.91972e-16 0)
(-2.15284e-16 -3.20923e-16 0)
(-2.80243e-17 -1.51788e-17 0)
(5.46638e-17 0 0)
(2.34396e-17 0 0)
(-3.78151e-17 0 0)
(1.18068e-16 0 0)
(4.00334e-16 0 0)
(1.15733e-18 9.75778e-17 0)
(-3.61684e-16 0 0)
(-6.75851e-17 -5.20415e-17 0)
(1.45219e-16 0 0)
(2.19265e-17 -9.32411e-17 0)
(-2.1778e-16 0 0)
(-5.70467e-17 0 0)
(-1.0337e-17 -1.14925e-16 0)
(-1.32715e-17 0 0)
(1.51645e-16 0 0)
(3.8061e-18 -9.32411e-17 0)
(-1.44427e-16 -4.55363e-17 0)
(-1.57055e-17 0 0)
(6.08673e-19 0 0)
(-1.95705e-18 0 0)
(-6.61295e-19 0 0)
(6.78192e-19 0 0)
(-2.20653e-18 0 0)
(-2.93937e-20 0 0)
(-2.32843e-17 0 0)
(-1.78618e-16 0 0)
(1.17658e-17 -9.75778e-17 0)
(2.06382e-16 -4.33679e-18 0)
(6.2086e-16 -1.84314e-16 0)
(9.93813e-12 -8.17485e-16 0)
(3.46226e-08 -5.94141e-16 0)
(1.2721e-05 2.02747e-15 0)
(0.000702536 -5.46761e-16 0)
(0.00886965 3.62673e-16 0)
(0.0404196 -8.84276e-16 0)
(0.0999284 -1.03945e-14 0)
(0.177311 1.77562e-14 0)
(0.263497 -1.90898e-14 0)
(0.354198 7.37979e-15 0)
(0.447821 -9.78128e-16 0)
(0.543819 -1.18666e-15 0)
(0.642669 -1.30106e-16 0)
(0.74242 2.44312e-16 0)
(0.841483 -2.46175e-15 0)
(0.918052 5.57223e-16 0)
(0.947762 1.47709e-15 0)
(0.923293 2.18977e-16 0)
(0.924976 -7.55707e-16 0)
(0.926663 3.24586e-16 0)
(0.928049 3.77753e-17 0)
(0.930846 -1.26441e-15 0)
(0.929851 6.20776e-17 0)
(0.927882 -3.01085e-15 0)
(0.947252 -1.01994e-15 0)
(0.952343 -1.42367e-15 0)
(0.931218 -3.16697e-16 0)
(0.807661 3.24831e-15 0)
(0.406237 -5.40579e-17 0)
(0.0399111 1.26214e-15 0)
(0.000338344 -9.06114e-16 0)
(1.83524e-07 -2.27682e-17 0)
(5.74843e-12 -1.51788e-16 0)
(3.89265e-16 -1.0842e-17 0)
(1.76713e-16 0 0)
(-2.10048e-17 8.67359e-17 0)
(-1.96856e-16 0 0)
(-4.12408e-17 -1.51788e-17 0)
(8.52062e-17 -9.32411e-17 0)
(-1.78822e-17 -2.81892e-17 0)
(9.22605e-17 -2.27682e-17 0)
(2.11933e-16 0 0)
(5.1654e-17 0 0)
(7.53923e-17 2.1684e-18 0)
(1.98228e-16 0 0)
(5.60764e-17 0 0)
(-1.7134e-18 0 0)
(-2.48733e-17 0 0)
(-1.44775e-16 0 0)
(4.72274e-17 0 0)
(2.20078e-16 1.39862e-16 0)
(1.6525e-17 0 0)
(-2.79049e-16 0 0)
(-5.11663e-16 0 0)
(-3.2966e-16 0 0)
(-1.87425e-16 -1.6263e-17 0)
(2.88318e-17 -8.89043e-17 0)
(3.1605e-16 -9.8662e-17 0)
(3.95477e-16 0 0)
(1.34047e-16 0 0)
(-2.69293e-16 0 0)
(-4.90433e-16 5.63783e-17 0)
(-3.24354e-16 -9.75778e-17 0)
(-1.29234e-16 -9.75778e-17 0)
(-1.2143e-16 -1.97324e-16 0)
(1.12757e-16 1.99492e-16 0)
(1.13764e-16 0 0)
(-1.04544e-16 -8.45675e-17 0)
(-6.22471e-17 -2.94902e-16 0)
(-1.28426e-17 -6.50519e-17 0)
(1.81356e-17 0 0)
(2.22707e-16 3.25259e-17 0)
(5.99722e-17 1.92987e-16 0)
(-9.91653e-17 7.37255e-17 0)
(1.24383e-16 -2.1684e-18 0)
(4.12204e-16 0 0)
(4.40374e-17 0 0)
(-3.24559e-16 0 0)
(-3.30351e-17 -7.15571e-17 0)
(1.83595e-16 0 0)
(2.78312e-17 9.32411e-17 0)
(-2.12448e-16 5.42099e-17 0)
(-1.55016e-16 0 0)
(-3.78027e-17 0 0)
(1.33782e-17 0 0)
(2.11535e-16 0 0)
(4.9072e-18 9.32411e-17 0)
(-1.9525e-16 0 0)
(-1.90878e-17 0 0)
(2.9235e-18 0 0)
(-2.26618e-17 0 0)
(-9.49962e-18 0 0)
(-1.43704e-19 0 0)
(-2.79075e-17 0 0)
(-5.09805e-19 0 0)
(-6.64003e-17 0 0)
(-2.2601e-16 -1.60461e-16 0)
(1.70505e-19 -3.49112e-16 0)
(2.42983e-16 -1.66967e-16 0)
(5.96339e-16 -6.50519e-18 0)
(9.93755e-12 -6.59193e-16 0)
(3.46226e-08 -7.15571e-17 0)
(1.2721e-05 -4.77052e-15 0)
(0.000702536 4.26994e-15 0)
(0.00886965 -3.72286e-15 0)
(0.0404196 1.63501e-15 0)
(0.0999284 -8.12684e-15 0)
(0.177311 1.1952e-14 0)
(0.263497 -1.10841e-14 0)
(0.354198 1.72895e-15 0)
(0.447821 -1.87743e-15 0)
(0.543819 2.47881e-16 0)
(0.642669 -5.51266e-16 0)
(0.74242 2.18925e-15 0)
(0.841483 -6.37324e-16 0)
(0.918052 2.36089e-15 0)
(0.947762 2.57588e-15 0)
(0.923293 6.35895e-16 0)
(0.924976 3.78176e-16 0)
(0.926663 -9.05127e-16 0)
(0.928049 -9.87405e-16 0)
(0.930846 -8.00435e-16 0)
(0.929851 -1.67045e-15 0)
(0.927882 -2.27796e-15 0)
(0.947252 -7.45434e-16 0)
(0.952343 -9.54306e-16 0)
(0.931218 5.72313e-16 0)
(0.807661 -1.26137e-16 0)
(0.406237 -1.79409e-16 0)
(0.0399111 -2.85238e-15 0)
(0.000338344 8.45417e-17 0)
(1.83524e-07 -1.07336e-16 0)
(5.74837e-12 3.22007e-16 0)
(3.50418e-16 -1.0842e-18 0)
(1.68564e-16 -1.06251e-16 0)
(-1.56696e-17 -8.67359e-17 0)
(-2.02952e-16 -1.56125e-16 0)
(-4.60534e-17 -1.14925e-16 0)
(9.51594e-17 -2.58039e-16 0)
(-9.00063e-18 -1.5504e-16 0)
(1.22273e-16 -2.38524e-17 0)
(2.66385e-16 -8.99885e-17 0)
(1.06567e-16 -9.97462e-17 0)
(5.77374e-18 4.66205e-17 0)
(-8.61799e-19 -9.54094e-17 0)
(-2.75703e-18 -2.14671e-16 0)
(2.67304e-17 -2.03829e-16 0)
(1.19783e-16 -1.59377e-16 0)
(1.1033e-17 -3.03576e-17 0)
(5.61273e-17 6.83045e-17 0)
(1.07011e-16 1.0842e-18 0)
(-1.1597e-18 0 0)
(-2.40438e-16 0 0)
(-4.57598e-16 0 0)
(-4.42714e-16 7.69781e-17 0)
(-2.65894e-16 -9.64936e-17 0)
(7.53792e-17 -1.0842e-18 0)
(3.68192e-16 0 0)
(4.04133e-16 -5.74625e-17 0)
(2.16049e-16 -1.63714e-16 0)
(-9.99621e-17 4.01153e-17 0)
(-3.6378e-16 2.27682e-16 0)
(-4.53962e-16 1.25767e-16 0)
(-2.91134e-16 1.73472e-16 0)
(-1.79977e-16 1.4203e-16 0)
(3.96817e-16 4.74879e-16 0)
(1.73207e-16 1.84314e-16 0)
(-2.1954e-16 1.34441e-16 0)
(-2.50506e-16 -1.32272e-16 0)
(-4.13855e-17 2.1684e-18 0)
(1.27864e-16 0 0)
(3.14953e-16 2.75386e-16 0)
(9.18903e-17 4.96563e-16 0)
(-9.10149e-17 3.10081e-16 0)
(1.53747e-16 1.10588e-16 0)
(3.10816e-16 1.32272e-16 0)
(4.99983e-17 -1.32272e-16 0)
(-2.33171e-16 -7.80623e-17 0)
(-2.89833e-17 -2.7105e-16 0)
(1.99724e-16 -6.93887e-17 0)
(3.98449e-17 1.0842e-17 0)
(-2.28115e-16 2.79723e-16 0)
(-3.23751e-16 9.75778e-17 0)
(-9.67283e-17 0 0)
(5.33025e-17 0 0)
(2.46402e-16 0 0)
(1.05202e-18 -3.03576e-17 0)
(-2.01478e-16 0 0)
(-9.01641e-18 0 0)
(3.93873e-18 0 0)
(-1.28646e-16 0 0)
(-5.28138e-17 0 0)
(-9.94075e-18 0 0)
(-1.0726e-16 0 0)
(-4.713e-18 0 0)
(-1.04257e-16 0 0)
(-3.56726e-16 8.67359e-18 0)
(-4.52358e-21 2.1684e-17 0)
(3.46876e-16 0 0)
(5.72752e-16 0 0)
(9.93663e-12 -4.55363e-17 0)
(3.46226e-08 -4.0549e-16 0)
(1.2721e-05 -1.07467e-14 0)
(0.000702536 7.04063e-15 0)
(0.00886965 -3.51968e-15 0)
(0.0404196 -2.36106e-15 0)
(0.0999284 -1.82473e-15 0)
(0.177311 1.84295e-15 0)
(0.263497 -1.90776e-17 0)
(0.354198 -4.80854e-15 0)
(0.447821 -2.13161e-15 0)
(0.543819 1.43454e-15 0)
(0.642669 -8.65448e-16 0)
(0.74242 2.28591e-15 0)
(0.841483 1.15325e-15 0)
(0.918052 3.23648e-15 0)
(0.947762 3.52161e-15 0)
(0.923293 7.40762e-16 0)
(0.924976 1.5182e-15 0)
(0.926663 -1.65542e-15 0)
(0.928049 -3.70933e-15 0)
(0.930846 -1.66616e-15 0)
(0.929851 -3.02834e-15 0)
(0.927882 -2.56246e-15 0)
(0.947252 6.97694e-16 0)
(0.952343 -1.09099e-15 0)
(0.931218 5.91818e-16 0)
(0.807661 -1.7608e-15 0)
(0.406237 -9.51105e-16 0)
(0.0399111 -3.821e-15 0)
(0.000338344 1.00475e-15 0)
(1.83524e-07 -2.05781e-15 0)
(5.74769e-12 1.8323e-16 0)
(2.27606e-16 -8.13149e-17 0)
(2.53884e-17 -2.49366e-16 0)
(1.9685e-18 -2.05998e-16 0)
(-5.11343e-17 -3.08997e-16 0)
(-5.52545e-17 -1.58293e-16 0)
(8.98417e-17 -8.45675e-17 0)
(-1.3159e-17 -5.42099e-17 0)
(3.90867e-17 -8.34833e-17 0)
(1.73264e-16 -2.17924e-16 0)
(1.15433e-16 -2.65629e-16 0)
(8.11896e-18 -1.58293e-16 0)
(-1.0836e-16 -2.8406e-16 0)
(-2.26305e-18 -4.20669e-16 0)
(5.71498e-17 -4.07659e-16 0)
(1.94689e-16 -3.59954e-16 0)
(8.57349e-17 -2.01661e-16 0)
(9.87153e-17 -6.83045e-17 0)
(1.21789e-16 0 0)
(-5.79501e-18 0 0)
(-7.71153e-17 -6.72203e-17 0)
(-3.17003e-16 4.11995e-17 0)
(-4.67254e-16 2.38524e-16 0)
(-2.47819e-16 1.07336e-16 0)
(2.96248e-17 3.25259e-18 0)
(2.65089e-16 9.10727e-17 0)
(4.02631e-16 -2.00577e-16 0)
(2.52108e-16 -3.54533e-16 0)
(7.51209e-17 -1.26851e-16 0)
(-2.92319e-16 5.09573e-17 0)
(-4.17894e-16 2.61292e-16 0)
(-2.84336e-16 3.95732e-16 0)
(-3.87059e-16 3.46943e-16 0)
(6.09319e-16 2.53702e-16 0)
(2.2792e-16 1.04083e-16 0)
(-2.33981e-16 5.42099e-17 0)
(-3.23926e-16 1.45283e-16 0)
(-9.81216e-19 7.15571e-17 0)
(2.97943e-16 2.25513e-16 0)
(4.97022e-16 1.6263e-16 0)
(1.33615e-16 2.4286e-16 0)
(-2.74535e-16 1.86482e-16 0)
(2.61098e-16 3.40438e-16 0)
(-4.64385e-17 3.68627e-17 0)
(-1.7685e-16 -2.53702e-16 0)
(-1.79627e-16 4.81481e-34 0)
(-7.9357e-17 8.67359e-17 0)
(2.32576e-16 -2.1684e-18 0)
(2.61948e-16 -2.12503e-16 0)
(-4.77166e-17 9.10727e-17 0)
(-4.16323e-16 2.34187e-16 0)
(-1.51237e-16 6.28835e-17 0)
(8.0711e-17 1.6263e-16 0)
(-1.48129e-16 6.50519e-18 0)
(-1.26752e-16 -2.73218e-16 0)
(1.31414e-16 3.25259e-17 0)
(2.84736e-16 2.60208e-16 0)
(-2.36089e-17 1.17093e-16 0)
(-3.24664e-16 2.38524e-17 0)
(-1.36553e-16 0 0)
(-3.25405e-17 0 0)
(-2.04406e-16 2.60208e-17 0)
(-2.60598e-17 -4.33679e-18 0)
(4.99386e-17 2.60208e-17 0)
(-1.32054e-16 2.08166e-16 0)
(5.04407e-17 3.88143e-16 0)
(6.21136e-17 1.49619e-16 0)
(3.83119e-16 1.73472e-17 0)
(9.93751e-12 5.50773e-16 0)
(3.46226e-08 -1.38561e-15 0)
(1.2721e-05 -6.18433e-15 0)
(0.000702536 -4.46521e-15 0)
(0.00886965 6.04965e-15 0)
(0.0404196 -1.02208e-14 0)
(0.0999284 5.51553e-15 0)
(0.177311 -1.08467e-14 0)
(0.263497 9.33983e-15 0)
(0.354198 -8.58119e-15 0)
(0.447821 4.24714e-16 0)
(0.543819 5.04552e-16 0)
(0.642669 -5.98489e-16 0)
(0.74242 2.03522e-15 0)
(0.841483 -2.00068e-15 0)
(0.918052 3.92099e-15 0)
(0.947762 4.03217e-15 0)
(0.923293 1.3757e-15 0)
(0.924976 2.29296e-17 0)
(0.926663 -5.06606e-16 0)
(0.928049 -2.57642e-15 0)
(0.930846 -7.2477e-16 0)
(0.929851 -2.97017e-15 0)
(0.927882 -3.09303e-15 0)
(0.947252 9.15009e-16 0)
(0.952343 -2.18098e-16 0)
(0.931218 9.90641e-17 0)
(0.807661 -1.65455e-15 0)
(0.406237 -2.7499e-16 0)
(0.0399111 -2.627e-15 0)
(0.000338344 -1.25729e-16 0)
(1.83524e-07 -1.27068e-15 0)
(5.74813e-12 -5.01984e-16 0)
(1.02154e-16 4.01153e-17 0)
(5.48782e-17 -6.39677e-17 0)
(4.10119e-18 -4.98731e-17 0)
(-2.76138e-17 -1.34441e-16 0)
(7.95115e-17 -3.14417e-17 0)
(1.73158e-17 3.68627e-17 0)
(-8.66561e-17 -6.61361e-17 0)
(-7.61084e-17 3.57785e-17 0)
(7.05094e-17 -8.99885e-17 0)
(1.6519e-16 -1.10588e-16 0)
(-8.07182e-18 -5.63783e-17 0)
(-1.62361e-16 -1.84314e-16 0)
(2.24479e-18 -1.9624e-16 0)
(1.02356e-16 -2.00577e-16 0)
(2.66294e-16 -1.77809e-16 0)
(1.64806e-16 -2.2985e-16 0)
(2.05556e-16 -8.45675e-17 0)
(1.45124e-16 0 0)
(4.56841e-18 -9.10727e-17 0)
(3.12067e-17 -2.35271e-16 0)
(-3.02367e-17 -8.67359e-18 0)
(-2.5803e-16 2.21176e-16 0)
(-2.54588e-16 3.14417e-16 0)
(-6.46499e-17 1.25767e-16 0)
(1.26337e-16 0 0)
(2.13945e-16 -1.43114e-16 0)
(3.90933e-16 -2.28766e-16 0)
(2.10204e-16 -6.93887e-17 0)
(-1.09274e-16 -9.32411e-17 0)
(-2.85417e-16 1.2143e-16 0)
(-3.55928e-16 2.0925e-16 0)
(-5.11742e-16 2.26597e-16 0)
(4.16332e-16 -4.33679e-18 0)
(1.54037e-16 2.55871e-16 0)
(-1.66874e-16 2.34187e-16 0)
(-1.15884e-16 4.16332e-16 0)
(1.46296e-16 3.12249e-16 0)
(3.92611e-16 5.52941e-16 0)
(3.15579e-16 3.44775e-16 0)
(6.05427e-18 1.23599e-16 0)
(-9.20133e-17 1.97324e-16 0)
(-9.8926e-17 -2.1684e-17 0)
(-2.99827e-16 -2.81892e-16 0)
(-5.71063e-17 -4.33679e-17 0)
(-1.9991e-16 2.40692e-16 0)
(-1.35397e-17 4.53195e-16 0)
(2.19732e-16 2.19008e-16 0)
(9.26088e-17 -3.25259e-17 0)
(4.72206e-17 1.6263e-16 0)
(-2.17579e-16 4.27174e-16 0)
(-3.56378e-17 2.64544e-16 0)
(6.87103e-17 4.4669e-16 0)
(-1.66327e-16 2.25513e-16 0)
(-1.28999e-16 6.28835e-17 0)
(1.45752e-16 2.58039e-16 0)
(2.89082e-16 5.85467e-16 0)
(-6.98892e-17 3.75133e-16 0)
(-4.39922e-16 2.27682e-16 0)
(-2.09795e-16 2.81892e-17 0)
(-4.27478e-17 6.50519e-17 0)
(-2.24848e-16 8.45675e-17 0)
(-6.31301e-17 -1.2143e-16 0)
(1.43068e-16 0 0)
(1.16728e-16 0 0)
(2.38758e-16 2.23345e-16 0)
(1.83886e-17 4.44521e-16 0)
(2.51324e-16 2.62376e-16 0)
(9.93774e-12 -1.06251e-16 0)
(3.46226e-08 -2.37656e-15 0)
(1.2721e-05 4.30214e-15 0)
(0.000702536 -1.66198e-14 0)
(0.00886965 1.46708e-14 0)
(0.0404196 -1.10871e-14 0)
(0.0999284 9.87244e-15 0)
(0.177311 -1.99111e-14 0)
(0.263497 1.40425e-14 0)
(0.354198 -9.00825e-15 0)
(0.447821 1.20175e-15 0)
(0.543819 -2.50166e-15 0)
(0.642669 -1.99689e-15 0)
(0.74242 2.82764e-15 0)
(0.841483 -3.43174e-16 0)
(0.918052 3.03943e-15 0)
(0.947762 1.55183e-15 0)
(0.923293 1.87294e-15 0)
(0.924976 7.57645e-16 0)
(0.926663 7.08187e-16 0)
(0.928049 -1.71283e-15 0)
(0.930846 -8.95688e-16 0)
(0.929851 -2.70754e-15 0)
(0.927882 -1.20242e-15 0)
(0.947252 -8.06103e-16 0)
(0.952343 4.14085e-16 0)
(0.931218 -6.35447e-16 0)
(0.807661 -9.73299e-16 0)
(0.406237 -4.06609e-16 0)
(0.0399111 -3.8535e-15 0)
(0.000338344 -2.14064e-15 0)
(1.83524e-07 1.59052e-15 0)
(5.74892e-12 -5.31257e-16 0)
(1.09896e-16 0 0)
(-1.13496e-16 1.16009e-16 0)
(-5.12847e-17 3.36101e-17 0)
(4.2741e-18 1.34441e-16 0)
(1.07071e-16 3.36101e-17 0)
(1.00426e-17 -6.50519e-17 0)
(-9.31771e-17 3.79469e-17 0)
(3.20902e-17 1.48535e-16 0)
(2.06108e-16 1.46367e-16 0)
(9.75064e-17 0 0)
(-8.45131e-17 -7.91465e-17 0)
(-6.34826e-17 7.91465e-17 0)
(9.20361e-17 1.49619e-16 0)
(-1.41369e-20 4.66205e-17 0)
(6.50676e-17 6.28835e-17 0)
(1.95718e-16 -5.42099e-17 0)
(2.54002e-16 0 0)
(6.21839e-17 0 0)
(-1.07706e-16 -1.48535e-16 0)
(5.57278e-17 -5.31257e-17 0)
(1.55205e-16 0 0)
(-2.75142e-17 -1.51788e-17 0)
(-1.84398e-16 1.43114e-16 0)
(-1.31359e-16 2.49366e-17 0)
(5.19635e-17 8.23991e-17 0)
(1.51709e-16 1.43114e-16 0)
(2.90566e-16 6.83045e-17 0)
(1.27216e-16 -1.35525e-16 0)
(-1.86878e-16 -2.01661e-16 0)
(-3.56417e-16 -2.60208e-17 0)
(-3.17918e-16 1.19262e-17 0)
(-4.18501e-16 9.64936e-17 0)
(6.31003e-16 -2.2985e-16 0)
(2.61721e-16 -9.97462e-17 0)
(-1.41947e-16 -7.37255e-17 0)
(-1.54311e-16 1.53956e-16 0)
(1.84258e-16 1.30104e-16 0)
(4.84021e-16 2.40692e-16 0)
(1.56353e-16 -3.25259e-17 0)
(-5.86737e-17 -3.10081e-16 0)
(-3.12743e-16 -1.90819e-16 0)
(-4.37383e-16 -3.94648e-16 0)
(-9.36744e-17 -7.15571e-17 0)
(1.58185e-16 2.53702e-16 0)
(-2.70143e-17 7.37255e-17 0)
(-2.11936e-16 2.55871e-16 0)
(-3.24155e-17 -4.33679e-18 0)
(2.76514e-16 -4.77047e-17 0)
(1.84311e-16 -1.56125e-16 0)
(-1.73849e-18 2.81892e-17 0)
(9.98837e-19 4.33679e-18 0)
(2.05268e-17 5.85467e-17 0)
(-1.62887e-16 -1.23599e-16 0)
(-1.04491e-16 4.33679e-18 0)
(1.47442e-16 8.02307e-17 0)
(8.96253e-17 2.01661e-16 0)
(-2.50353e-16 8.67359e-18 0)
(-6.33362e-16 4.33679e-18 0)
(-2.58391e-16 0 0)