/*--------------------------------*- C++ -*----------------------------------*\
| =========                 |                                                 |
| \\      /  F ield         | OpenFOAM: The Open Source CFD Toolbox           |
|  \\    /   O peration     | Version:  4.1                                   |
|   \\  /    A nd           | Web:      www.OpenFOAM.org                      |
|    \\/     M anipulation  |                                                 |
\*---------------------------------------------------------------------------*/
FoamFile
{
    version     2.0;
    format      ascii;
    class       volVectorField;
    location    "0.22";
    object      U;
}
// * * * * * * * * * * * * * * * * * * * * * * * * * * * * * * * * * * * * * //

dimensions      [0 1 -1 0 0 0 0];

internalField   nonuniform List<vector> 
10000
(
(0 0 0)
(1.03412e-16 0 0)
(2.65059e-16 0 0)
(7.42041e-17 1.40946e-16 0)
(-1.1232e-16 0 0)
(-1.96697e-16 0 0)
(-2.01324e-16 0 0)
(-2.98273e-17 0 0)
(-8.23237e-26 0 0)
(1.60219e-16 1.34441e-16 0)
(3.88499e-16 0 0)
(7.30326e-17 -1.53956e-16 0)
(-2.77135e-16 0 0)
(1.09531e-18 0 0)
(1.56021e-16 0 0)
(-3.52163e-17 1.27935e-16 0)
(-2.27815e-16 0 0)
(-8.76048e-17 0 0)
(-1.01059e-17 0 0)
(-9.97977e-17 0 0)
(3.61087e-19 0 0)
(5.91955e-17 1.0842e-16 0)
(1.64022e-17 0 0)
(9.63434e-17 0 0)
(-6.31995e-17 0 0)
(-2.20324e-16 0 0)
(-3.26612e-16 -1.17093e-16 0)
(-3.51652e-17 9.75778e-17 0)
(2.70844e-16 4.33679e-17 0)
(9.82807e-17 1.97324e-16 0)
(1.02047e-14 1.43114e-16 0)
(1.63166e-10 -7.37255e-16 0)
(2.32727e-07 1.0842e-16 0)
(4.07343e-05 7.74144e-16 0)
(0.00126866 7.87756e-15 0)
(0.0107919 3.84271e-15 0)
(0.0388377 -7.02623e-15 0)
(0.0846912 4.5338e-15 0)
(0.140859 2.24373e-15 0)
(0.20207 2.14058e-14 0)
(0.26593 2.79313e-14 0)
(0.331417 2.053e-14 0)
(0.398069 9.93175e-15 0)
(0.465693 1.47515e-14 0)
(0.534239 1.87949e-14 0)
(0.60374 1.33186e-14 0)
(0.674199 -7.65917e-15 0)
(0.745244 -1.7319e-14 0)
(0.815781 6.95453e-15 0)
(0.880548 1.38069e-14 0)
(0.928785 7.42486e-15 0)
(0.941953 7.89774e-15 0)
(0.923804 6.58253e-15 0)
(0.925343 7.07366e-15 0)
(0.926708 4.3267e-15 0)
(0.927103 4.182e-15 0)
(0.927485 3.5318e-15 0)
(0.927876 2.9641e-15 0)
(0.928529 5.62202e-15 0)
(0.929386 5.47329e-15 0)
(0.931454 4.57317e-15 0)
(0.931263 4.50875e-15 0)
(0.920553 3.57731e-15 0)
(0.923299 3.14455e-15 0)
(0.92957 7.46662e-16 0)
(0.935615 -3.64659e-15 0)
(0.936013 -7.34283e-15 0)
(0.925504 -8.26195e-15 0)
(0.847512 -6.95147e-15 0)
(0.530747 -2.3437e-15 0)
(0.08996 -3.38084e-16 0)
(0.00147717 7.5795e-17 0)
(1.67223e-06 1.8865e-16 0)
(9.49336e-11 8.84706e-16 0)
(2.23609e-15 1.68051e-16 0)
(7.49748e-17 1.19262e-17 0)
(2.51628e-16 0 0)
(5.31442e-17 0 0)
(-1.33944e-16 9.54094e-17 0)
(5.84118e-17 0 0)
(2.60736e-16 0 0)
(5.79984e-17 0 0)
(-1.42579e-16 0 0)
(5.94963e-17 0 0)
(2.523e-16 9.8662e-17 0)
(7.3999e-17 0 0)
(-1.58749e-16 0 0)
(-5.46581e-17 0 0)
(-5.03187e-17 0 0)
(-1.48142e-16 0 0)
(-2.23769e-16 -6.50519e-18 0)
(-3.75407e-16 0 0)
(-1.68331e-16 4.01153e-17 0)
(6.3747e-17 0 0)
(2.73749e-16 0 0)
(5.68585e-17 0 0)
(-1.75601e-16 8.13149e-17 0)
(-1.97465e-16 2.05998e-17 0)
(-1.05493e-16 0 0)
(0 3.68627e-17 0)
(0 0 0)
(1.41639e-16 0 0)
(2.85275e-16 1.34441e-16 0)
(8.94059e-17 3.25259e-16 0)
(-1.3336e-16 1.25767e-16 0)
(-2.89748e-16 2.47197e-16 0)
(-2.59964e-16 4.98731e-17 0)
(-3.3456e-17 0 0)
(-4.62428e-23 0 0)
(1.82748e-16 0 0)
(4.61376e-16 0 0)
(1.23203e-16 0 0)
(-2.32463e-16 0 0)
(3.24041e-17 0 0)
(1.55607e-16 1.30104e-16 0)
(-4.11867e-17 3.12249e-16 0)
(-2.4118e-16 1.27935e-16 0)
(-1.27685e-16 0 0)
(-2.98363e-17 0 0)
(-1.746e-16 0 0)
(3.25246e-19 0 0)
(9.2275e-17 2.1684e-18 0)
(3.46803e-17 0 0)
(1.11536e-16 1.36609e-16 0)
(-1.08855e-16 3.20923e-16 0)
(-3.05994e-16 1.23599e-16 0)
(-2.24126e-16 8.02307e-17 0)
(-2.24164e-17 2.73218e-16 0)
(1.66959e-16 9.54094e-17 0)
(8.4096e-17 8.67359e-18 0)
(1.06408e-14 6.50519e-18 0)
(1.63164e-10 -3.5128e-16 0)
(2.32727e-07 1.04083e-15 0)
(4.07343e-05 1.85187e-15 0)
(0.00126866 1.47088e-14 0)
(0.0107919 -3.788e-15 0)
(0.0388377 9.58011e-15 0)
(0.0846912 5.18881e-15 0)
(0.140859 1.10963e-15 0)
(0.20207 2.85922e-14 0)
(0.26593 -6.50469e-15 0)
(0.331417 2.11031e-14 0)
(0.398069 2.80726e-14 0)
(0.465693 5.31218e-15 0)
(0.534239 9.09358e-15 0)
(0.60374 7.76645e-15 0)
(0.674199 9.20293e-15 0)
(0.745244 -4.51508e-15 0)
(0.815781 5.93321e-15 0)
(0.880548 1.17232e-14 0)
(0.928785 1.18594e-14 0)
(0.941953 7.26644e-15 0)
(0.923804 4.49503e-15 0)
(0.925343 9.07667e-15 0)
(0.926708 4.74851e-15 0)
(0.927103 3.1365e-15 0)
(0.927485 2.00315e-15 0)
(0.927876 2.05087e-15 0)
(0.928529 4.26777e-15 0)
(0.929386 2.29711e-15 0)
(0.931454 6.01291e-15 0)
(0.931263 8.44173e-15 0)
(0.920553 5.2276e-15 0)
(0.923299 5.80592e-15 0)
(0.92957 3.56179e-15 0)
(0.935615 -8.48995e-16 0)
(0.936013 -1.89946e-15 0)
(0.925504 -1.68266e-15 0)
(0.847512 -5.55527e-15 0)
(0.530747 -1.69782e-16 0)
(0.08996 -1.32416e-15 0)
(0.00147717 6.28016e-17 0)
(1.67223e-06 1.31188e-16 0)
(9.49333e-11 5.20415e-16 0)
(2.23409e-15 1.79977e-16 0)
(6.69135e-17 1.77809e-16 0)
(1.86526e-16 5.09573e-17 0)
(2.05599e-19 4.33679e-17 0)
(-1.62333e-16 2.03829e-16 0)
(1.13925e-17 3.46943e-17 0)
(2.13027e-16 7.58939e-18 0)
(4.50053e-17 0 0)
(-1.41707e-16 5.63783e-17 0)
(5.65037e-17 1.5504e-16 0)
(2.60226e-16 2.01661e-16 0)
(7.95296e-17 2.05998e-17 0)
(-1.80192e-16 0 0)
(-7.96205e-17 0 0)
(-8.31117e-17 0 0)
(-1.86174e-16 -6.50519e-18 0)
(-1.37632e-16 -2.27682e-17 0)
(-2.51386e-16 1.17093e-16 0)
(-1.27984e-16 2.38524e-16 0)
(6.21097e-17 6.72203e-17 0)
(2.72254e-16 0 0)
(4.82855e-17 1.95156e-17 0)
(-2.02128e-16 1.97324e-16 0)
(-2.79164e-16 2.24429e-16 0)
(-1.87471e-16 1.53956e-16 0)
(-1.47451e-16 2.47197e-16 0)
(0 0 0)
(2.14423e-16 0 0)
(5.23223e-16 0 0)
(1.10929e-16 9.32411e-17 0)
(-3.60344e-16 3.44775e-16 0)
(-3.24298e-16 5.72457e-16 0)
(-2.75551e-16 2.40692e-16 0)
(-3.03069e-17 0 0)
(-7.12208e-21 0 0)
(2.25453e-16 0 0)
(5.37193e-16 0 0)
(1.89747e-16 2.1684e-18 0)
(-1.35106e-16 2.60208e-17 0)
(8.7663e-17 2.4286e-16 0)
(3.18694e-16 9.97462e-17 0)
(-4.55158e-17 7.37255e-17 0)
(-4.0888e-16 0 0)
(-1.58912e-16 0 0)
(-7.00172e-17 1.01915e-16 0)
(-2.53072e-16 0 0)
(-9.6746e-19 0 0)
(1.89531e-16 0 0)
(6.9846e-17 8.67359e-17 0)
(1.56381e-16 4.0549e-16 0)
(-1.05528e-16 6.72203e-16 0)
(-3.93544e-16 3.81638e-16 0)
(-3.88276e-16 4.77047e-17 0)
(-3.74902e-17 5.42099e-17 0)
(2.8648e-16 0 0)
(1.24727e-16 0 0)
(1.03556e-14 7.37255e-17 0)
(1.63165e-10 6.09319e-16 0)
(2.32727e-07 2.54787e-15 0)
(4.07343e-05 4.40417e-15 0)
(0.00126866 1.60395e-14 0)
(0.0107919 2.47281e-15 0)
(0.0388377 1.40906e-14 0)
(0.0846912 5.10606e-15 0)
(0.140859 -3.68979e-15 0)
(0.20207 3.18403e-14 0)
(0.26593 -1.57587e-14 0)
(0.331417 1.52351e-14 0)
(0.398069 2.95678e-14 0)
(0.465693 -1.33377e-15 0)
(0.534239 4.61122e-15 0)
(0.60374 5.62366e-15 0)
(0.674199 1.1295e-14 0)
(0.745244 -3.13875e-15 0)
(0.815781 7.66956e-15 0)
(0.880548 8.38239e-15 0)
(0.928785 3.1665e-15 0)
(0.941953 4.99825e-15 0)
(0.923804 2.65578e-15 0)
(0.925343 9.77976e-15 0)
(0.926708 4.86312e-15 0)
(0.927103 1.47464e-15 0)
(0.927485 4.76448e-16 0)
(0.927876 4.99478e-16 0)
(0.928529 1.4382e-15 0)
(0.929386 -1.25529e-16 0)
(0.931454 3.35522e-15 0)
(0.931263 7.65736e-15 0)
(0.920553 6.97948e-15 0)
(0.923299 8.82801e-15 0)
(0.92957 5.55118e-15 0)
(0.935615 2.16698e-15 0)
(0.936013 -1.78857e-17 0)
(0.925504 1.19521e-15 0)
(0.847512 -2.18927e-15 0)
(0.530747 4.39311e-15 0)
(0.08996 -1.34831e-15 0)
(0.00147717 -7.5795e-18 0)
(1.67223e-06 -1.89734e-16 0)
(9.49333e-11 4.22837e-17 0)
(2.35437e-15 2.78639e-16 0)
(8.54515e-17 3.75133e-16 0)
(1.85706e-16 2.80807e-16 0)
(1.17627e-17 1.58293e-16 0)
(-2.04299e-16 1.99492e-16 0)
(-6.42539e-17 2.65629e-16 0)
(1.39828e-16 2.55871e-16 0)
(1.5713e-16 1.82145e-16 0)
(5.58111e-17 3.10081e-16 0)
(1.57788e-16 3.46943e-16 0)
(1.59343e-16 1.36609e-16 0)
(-2.35691e-17 -8.02307e-17 0)
(-1.82046e-16 -1.95156e-17 0)
(-1.01471e-16 8.34833e-17 0)
(-1.27268e-16 -1.84314e-17 0)
(-2.29112e-16 8.56517e-17 0)
(-1.01799e-16 8.89043e-17 0)
(-7.79449e-17 2.90565e-16 0)
(-1.3775e-16 4.44521e-16 0)
(1.28e-17 3.42607e-16 0)
(1.90798e-16 1.66967e-16 0)
(7.34567e-17 4.33679e-17 0)
(-1.55124e-16 2.24429e-16 0)
(-3.59321e-16 4.27174e-16 0)
(-2.57804e-16 3.41522e-16 0)
(-3.44775e-16 4.43437e-16 0)
(-2.1684e-18 -2.1684e-18 0)
(2.78888e-16 -2.1684e-18 0)
(6.12236e-16 -2.1684e-18 0)
(2.40056e-16 3.90311e-17 0)
(-2.44989e-16 2.86228e-16 0)
(-6.1925e-16 1.77809e-16 0)
(-3.07367e-16 -2.1684e-18 0)
(-1.99128e-17 -2.1684e-18 0)
(-3.00438e-19 0 0)
(1.08305e-16 0 0)
(3.61207e-16 -4.33679e-18 0)
(1.87651e-16 -1.66967e-16 0)
(1.91805e-16 1.97324e-16 0)
(1.7481e-16 5.61615e-16 0)
(2.37656e-16 2.81892e-16 0)
(-4.92402e-17 0 0)
(-3.10506e-16 -2.1684e-18 0)
(-7.05416e-17 1.17093e-16 0)
(-8.68558e-17 3.49112e-16 0)
(-2.65094e-16 1.73472e-16 0)
(-2.47488e-18 0 0)
(2.63363e-16 1.49619e-16 0)
(8.27502e-17 3.31765e-16 0)
(2.39162e-16 1.47451e-16 0)
(-1.02683e-16 2.34187e-16 0)
(-4.57673e-16 9.10727e-17 0)
(-4.434e-16 -4.33679e-18 0)
(-6.72236e-17 0 0)
(2.92472e-16 -2.1684e-18 0)
(2.18164e-16 0 0)
(1.06453e-14 2.40692e-16 0)
(1.63165e-10 1.52872e-15 0)
(2.32727e-07 9.30242e-16 0)
(4.07343e-05 4.98315e-15 0)
(0.00126866 7.91013e-15 0)
(0.0107919 8.51042e-15 0)
(0.0388377 1.00709e-14 0)
(0.0846912 9.38461e-15 0)
(0.140859 -1.15184e-14 0)
(0.20207 3.10854e-14 0)
(0.26593 -1.62024e-14 0)
(0.331417 8.52921e-15 0)
(0.398069 2.92405e-14 0)
(0.465693 -3.84765e-15 0)
(0.534239 2.42925e-15 0)
(0.60374 6.5501e-15 0)
(0.674199 9.42346e-15 0)
(0.745244 -6.34983e-16 0)
(0.815781 3.61276e-15 0)
(0.880548 5.49505e-16 0)
(0.928785 -8.99809e-16 0)
(0.941953 3.63837e-15 0)
(0.923804 6.49304e-15 0)
(0.925343 4.7459e-15 0)
(0.926708 3.03579e-15 0)
(0.927103 1.12966e-15 0)
(0.927485 5.75102e-16 0)
(0.927876 1.655e-16 0)
(0.928529 -1.37021e-15 0)
(0.929386 -8.79455e-17 0)
(0.931454 1.2284e-15 0)
(0.931263 3.38272e-15 0)
(0.920553 8.80491e-15 0)
(0.923299 7.55266e-15 0)
(0.92957 4.58986e-15 0)
(0.935615 3.34023e-15 0)
(0.936013 2.30878e-15 0)
(0.925504 2.74043e-15 0)
(0.847512 7.47635e-16 0)
(0.530747 4.69093e-15 0)
(0.08996 -2.41287e-15 0)
(0.00147717 2.52073e-15 0)
(1.67223e-06 3.72964e-16 0)
(9.49339e-11 1.27935e-16 0)
(2.52618e-15 4.52111e-16 0)
(9.03318e-18 3.8489e-16 0)
(1.11767e-16 4.85721e-16 0)
(-2.70026e-17 3.25259e-16 0)
(-2.07311e-16 3.24175e-16 0)
(-3.34162e-17 4.98731e-16 0)
(1.64045e-16 5.51857e-16 0)
(3.13596e-16 4.04406e-16 0)
(2.53843e-16 5.21499e-16 0)
(2.63544e-17 4.41269e-16 0)
(-1.44279e-16 2.24429e-16 0)
(-2.53292e-17 9.64936e-17 0)
(-1.37316e-17 1.47451e-16 0)
(-1.54697e-16 1.64798e-16 0)
(-2.27532e-16 2.81892e-17 0)
(-1.25968e-16 1.30104e-16 0)
(-2.36629e-17 2.7105e-17 0)
(3.61093e-17 1.38777e-16 0)
(-1.5751e-16 3.3068e-16 0)
(-1.71282e-16 5.36678e-16 0)
(-3.05447e-17 4.01153e-16 0)
(-1.05957e-16 2.22261e-16 0)
(-4.21122e-17 1.12757e-16 0)
(-1.89198e-16 2.58039e-16 0)
(-3.74619e-16 1.98408e-16 0)
(-5.6812e-16 2.24429e-16 0)
(-2.1684e-18 2.1684e-18 0)
(3.01876e-16 2.1684e-18 0)
(6.42325e-16 2.1684e-18 0)
(2.31281e-16 1.66967e-16 0)
(-5.02162e-16 -1.51788e-16 0)
(-5.77998e-16 -5.44268e-16 0)
(-2.54805e-16 -2.40692e-16 0)
(-7.38482e-18 2.1684e-18 0)
(-4.23747e-18 0 0)
(1.30148e-16 -2.1684e-18 0)
(3.95288e-16 1.30104e-17 0)
(2.21802e-16 1.58293e-16 0)
(4.03951e-16 2.81892e-17 0)
(2.21411e-16 2.12503e-16 0)
(2.59892e-16 2.60208e-17 0)
(-5.60201e-17 9.10727e-17 0)
(-3.73846e-16 2.1684e-18 0)
(-9.61141e-17 2.1684e-18 0)
(-1.02618e-16 -1.51788e-17 0)
(-2.89628e-16 0 0)
(4.72202e-17 0 0)
(3.28746e-16 2.60208e-16 0)
(6.59038e-17 3.46943e-17 0)
(-2.4294e-17 -9.97462e-17 0)
(-1.06779e-17 -3.72964e-16 0)
(-1.78802e-16 -1.58293e-16 0)
(-2.01769e-16 -1.12757e-16 0)
(2.75482e-17 0 0)
(9.24968e-17 2.1684e-18 0)
(1.40031e-17 0 0)
(1.0832e-14 -1.43114e-16 0)
(1.63168e-10 7.39423e-16 0)
(2.32727e-07 2.32018e-16 0)
(4.07343e-05 4.14178e-16 0)
(0.00126866 2.17073e-16 0)
(0.0107919 1.06047e-14 0)
(0.0388377 1.5823e-15 0)
(0.0846912 1.35361e-14 0)
(0.140859 -1.80819e-14 0)
(0.20207 2.72579e-14 0)
(0.26593 -1.07925e-14 0)
(0.331417 1.24595e-15 0)
(0.398069 2.91575e-14 0)
(0.465693 -4.39848e-15 0)
(0.534239 2.33173e-15 0)
(0.60374 5.78442e-15 0)
(0.674199 3.06466e-15 0)
(0.745244 -1.19232e-15 0)
(0.815781 5.68158e-16 0)
(0.880548 -5.08171e-16 0)
(0.928785 -2.1357e-15 0)
(0.941953 -1.8791e-15 0)
(0.923804 3.94952e-15 0)
(0.925343 -2.27099e-15 0)
(0.926708 1.09385e-15 0)
(0.927103 1.42536e-15 0)
(0.927485 4.1014e-16 0)
(0.927876 9.03959e-16 0)
(0.928529 -2.63219e-15 0)
(0.929386 -1.37856e-15 0)
(0.931454 2.00904e-16 0)
(0.931263 2.09073e-15 0)
(0.920553 1.05128e-14 0)
(0.923299 3.35873e-15 0)
(0.92957 3.38257e-15 0)
(0.935615 1.19729e-15 0)
(0.936013 2.97413e-15 0)
(0.925504 3.81107e-15 0)
(0.847512 1.49144e-15 0)
(0.530747 5.42807e-15 0)
(0.08996 -5.84704e-15 0)
(0.00147717 8.42841e-15 0)
(1.67223e-06 1.38777e-16 0)
(9.49336e-11 6.33172e-16 0)
(2.29136e-15 3.16586e-16 0)
(8.1972e-17 1.69135e-16 0)
(1.8113e-16 2.74302e-16 0)
(6.95987e-17 2.22261e-16 0)
(-4.95177e-17 3.55617e-16 0)
(9.62998e-17 5.03068e-16 0)
(6.32001e-17 6.38593e-16 0)
(1.86476e-16 5.28005e-16 0)
(6.53874e-17 3.35017e-16 0)
(-1.14248e-16 2.5045e-16 0)
(-1.53317e-16 3.52364e-16 0)
(-2.7072e-17 3.37186e-16 0)
(4.47762e-18 3.43691e-16 0)
(-3.06983e-16 1.97324e-16 0)
(-4.5838e-16 1.63714e-16 0)
(-2.93793e-16 -3.68627e-17 0)
(-7.28205e-18 -1.22514e-16 0)
(2.22685e-16 -1.17093e-16 0)
(9.44357e-17 -1.0842e-18 0)
(6.25338e-17 3.31765e-16 0)
(4.22862e-17 5.72457e-16 0)
(-1.68797e-16 4.29343e-16 0)
(-2.61329e-16 7.80623e-17 0)
(-3.53305e-16 -1.35525e-16 0)
(-5.08186e-16 -6.93887e-17 0)
(-6.53772e-16 -1.94071e-16 0)
(0 0 0)
(1.33591e-16 0 0)
(3.34459e-16 -8.45675e-17 0)
(-6.4149e-17 -3.3827e-16 0)
(-5.78515e-16 -5.50773e-16 0)
(-2.73991e-16 -2.4286e-16 0)
(-7.98307e-17 -2.1684e-17 0)
(1.39608e-17 0 0)
(-2.33793e-17 0 0)
(1.51001e-16 2.1684e-18 0)
(4.05654e-16 2.1684e-16 0)
(2.16054e-16 3.98985e-16 0)
(-2.67959e-17 1.53956e-16 0)
(9.32356e-17 -1.32272e-16 0)
(2.99461e-16 -6.50519e-17 0)
(-5.69032e-17 -9.32411e-17 0)
(-4.1253e-16 0 0)
(-1.23008e-16 -9.97462e-17 0)
(-1.52021e-17 -3.77301e-16 0)
(-3.91531e-17 -1.36609e-16 0)
(2.06945e-16 0 0)
(5.65729e-17 1.51788e-17 0)
(-1.79963e-16 -2.23345e-16 0)
(-1.84194e-17 -4.33679e-17 0)
(6.7394e-19 -1.12757e-16 0)
(-5.12949e-18 0 0)
(-2.83122e-18 1.17093e-16 0)
(1.12102e-18 0 0)
(2.02304e-17 0 0)
(-1.56334e-16 0 0)
(1.05338e-14 -2.1684e-16 0)
(1.63167e-10 -8.97716e-16 0)
(2.32727e-07 -6.74371e-16 0)
(4.07343e-05 -2.47856e-15 0)
(0.00126866 -2.62875e-15 0)
(0.0107919 6.3571e-15 0)
(0.0388377 5.3117e-16 0)
(0.0846912 1.21352e-14 0)
(0.140859 -1.9758e-14 0)
(0.20207 2.0336e-14 0)
(0.26593 -7.32239e-15 0)
(0.331417 -5.59015e-15 0)
(0.398069 2.22592e-14 0)
(0.465693 -5.1144e-15 0)
(0.534239 -8.95078e-16 0)
(0.60374 3.32662e-15 0)
(0.674199 1.21891e-15 0)
(0.745244 -1.44227e-15 0)
(0.815781 1.74546e-15 0)
(0.880548 1.42239e-16 0)
(0.928785 -2.96524e-15 0)
(0.941953 -2.49268e-15 0)
(0.923804 -1.87341e-15 0)
(0.925343 -2.17871e-15 0)
(0.926708 2.13772e-15 0)
(0.927103 -9.12052e-17 0)
(0.927485 -1.69555e-15 0)
(0.927876 -4.25334e-16 0)
(0.928529 -4.44052e-15 0)
(0.929386 -2.98864e-15 0)
(0.931454 -2.18739e-15 0)
(0.931263 1.39073e-18 0)
(0.920553 7.10758e-15 0)
(0.923299 8.42373e-16 0)
(0.92957 2.58353e-15 0)
(0.935615 -1.80539e-16 0)
(0.936013 1.37924e-15 0)
(0.925504 1.78818e-15 0)
(0.847512 1.7952e-16 0)
(0.530747 3.43596e-15 0)
(0.08996 -1.62703e-15 0)
(0.00147717 5.67272e-15 0)
(1.67223e-06 -1.10263e-15 0)
(9.49333e-11 1.09504e-16 0)
(2.22413e-15 3.36101e-17 0)
(1.21278e-16 -7.04729e-17 0)
(2.12839e-16 3.03576e-17 0)
(8.78761e-17 2.60208e-17 0)
(5.38894e-17 1.01915e-16 0)
(1.57185e-16 2.59123e-16 0)
(3.30575e-17 3.83806e-16 0)
(-1.06022e-19 3.33933e-16 0)
(-4.12222e-17 1.16009e-16 0)
(-1.48268e-16 2.38524e-17 0)
(1.32245e-17 1.84314e-16 0)
(1.45997e-16 3.82722e-16 0)
(-1.78901e-17 1.61546e-16 0)
(-3.8756e-16 4.22837e-17 0)
(-6.31653e-16 8.56517e-17 0)
(-4.62556e-16 -8.45675e-17 0)
(-1.44236e-16 1.19262e-17 0)
(9.3677e-17 -2.45029e-16 0)
(3.34558e-16 -2.2985e-16 0)
(3.43677e-16 5.20415e-17 0)
(9.21232e-17 3.29596e-16 0)
(-2.43221e-16 2.2985e-16 0)
(-4.88288e-16 -9.43252e-17 0)
(-4.62718e-16 -3.08997e-16 0)
(-3.59047e-16 -2.48281e-16 0)
(-4.33679e-16 -3.49112e-16 0)
(0 0 0)
(1.00755e-16 -2.81892e-17 0)
(3.25763e-17 -3.88143e-16 0)
(-6.51833e-17 -7.4376e-16 0)
(-2.39181e-16 -4.29343e-16 0)
(-8.05187e-17 -3.25259e-17 0)
(1.08205e-16 0 0)
(5.84279e-17 0 0)
(-5.68714e-17 0 0)
(1.32983e-16 0 0)
(4.09866e-16 1.95156e-17 0)
(3.87764e-18 1.66967e-16 0)
(-3.42781e-16 0 0)
(-5.30058e-17 -5.20415e-17 0)
(1.86259e-16 0 0)
(2.66054e-17 -9.32411e-17 0)
(-2.31151e-16 0 0)
(-1.384e-16 0 0)
(-2.37129e-17 -1.14925e-16 0)
(-3.10574e-18 0 0)
(1.97644e-16 0 0)
(2.17283e-18 -9.32411e-17 0)
(-1.67597e-16 -4.55363e-17 0)
(-1.81069e-17 0 0)
(1.40085e-18 0 0)
(-1.34437e-17 0 0)
(-4.89446e-18 0 0)
(-2.1706e-19 0 0)
(-8.14026e-18 0 0)
(1.5004e-17 0 0)
(1.02339e-14 -2.1684e-18 0)
(1.63166e-10 -4.53195e-16 0)
(2.32727e-07 -2.41993e-15 0)
(4.07343e-05 2.58048e-16 0)
(0.00126866 -5.72855e-15 0)
(0.0107919 3.04616e-15 0)
(0.0388377 2.72309e-15 0)
(0.0846912 7.52214e-15 0)
(0.140859 -1.60499e-14 0)
(0.20207 1.23069e-14 0)
(0.26593 -5.43992e-15 0)
(0.331417 -7.10961e-15 0)
(0.398069 1.49875e-14 0)
(0.465693 -3.779e-15 0)
(0.534239 -2.47104e-15 0)
(0.60374 1.12064e-15 0)
(0.674199 2.38418e-15 0)
(0.745244 -2.6431e-15 0)
(0.815781 3.20742e-15 0)
(0.880548 -1.30568e-15 0)
(0.928785 1.57864e-15 0)
(0.941953 2.38382e-15 0)
(0.923804 -1.7915e-15 0)
(0.925343 -2.72735e-16 0)
(0.926708 1.26035e-15 0)
(0.927103 -8.26927e-16 0)
(0.927485 -1.30805e-15 0)
(0.927876 -3.98854e-16 0)
(0.928529 -2.60756e-15 0)
(0.929386 -2.22908e-15 0)
(0.931454 -2.67022e-15 0)
(0.931263 -7.44041e-16 0)
(0.920553 3.01086e-15 0)
(0.923299 8.78753e-16 0)
(0.92957 1.27251e-15 0)
(0.935615 5.98388e-17 0)
(0.936013 -2.13095e-16 0)
(0.925504 -7.09814e-16 0)
(0.847512 8.37395e-17 0)
(0.530747 8.10001e-16 0)
(0.08996 2.2871e-15 0)
(0.00147717 1.07954e-15 0)
(1.67223e-06 -6.29918e-16 0)
(9.49336e-11 -2.82976e-16 0)
(2.1457e-15 -4.22837e-17 0)
(1.10262e-16 -2.27682e-17 0)
(2.23293e-16 0 0)
(9.07682e-17 0 0)
(1.02291e-16 2.1684e-18 0)
(2.1425e-16 0 0)
(6.681e-17 0 0)
(5.56267e-19 0 0)
(-1.16065e-17 0 0)
(-1.23194e-16 0 0)
(7.13983e-17 2.7105e-17 0)
(2.2966e-16 1.95156e-16 0)
(2.3109e-17 0 0)
(-3.72523e-16 0 0)
(-6.31532e-16 0 0)
(-4.37603e-16 0 0)
(-2.5839e-16 -1.6263e-17 0)
(3.80237e-17 -9.54094e-17 0)
(3.55001e-16 -9.8662e-17 0)
(4.30511e-16 0 0)
(1.60949e-16 0 0)
(-2.76746e-16 2.1684e-17 0)
(-5.43572e-16 5.85467e-17 0)
(-4.41101e-16 -1.0083e-16 0)
(-2.66259e-16 -7.48097e-17 0)
(-2.2985e-16 -1.43114e-16 0)
(1.92987e-16 1.99492e-16 0)
(1.7562e-16 0 0)
(-1.31773e-16 -1.60461e-16 0)
(-8.193e-17 -4.14164e-16 0)
(-1.24446e-17 -1.36609e-16 0)
(5.89487e-17 0 0)
(3.1281e-16 8.89043e-17 0)
(1.02276e-16 2.77555e-16 0)
(-7.18729e-17 1.47451e-16 0)
(1.55898e-16 -2.1684e-18 0)
(4.24328e-16 0 0)
(5.30293e-17 0 0)
(-3.13635e-16 0 0)
(-2.58322e-17 -7.37255e-17 0)
(2.07329e-16 0 0)
(2.92426e-17 9.32411e-17 0)
(-2.38148e-16 7.58939e-17 0)
(-2.42181e-16 0 0)
(-5.82628e-17 0 0)
(3.3836e-17 0 0)
(2.23582e-16 0 0)
(8.77148e-19 9.32411e-17 0)
(-1.96468e-16 0 0)
(-1.99173e-17 0 0)
(-3.30282e-18 0 0)
(-5.64871e-17 0 0)
(-2.2843e-17 0 0)
(-6.48991e-18 0 0)
(-6.5993e-17 0 0)
(1.3719e-17 0 0)
(1.01773e-14 4.33679e-18 0)
(1.63166e-10 -1.47451e-16 0)
(2.32727e-07 -8.60854e-16 0)
(4.07343e-05 4.28273e-15 0)
(0.00126866 -1.22082e-14 0)
(0.0107919 6.95671e-15 0)
(0.0388377 9.63726e-16 0)
(0.0846912 3.40326e-15 0)
(0.140859 -8.97123e-15 0)
(0.20207 5.9915e-15 0)
(0.26593 -4.11168e-15 0)
(0.331417 -5.35717e-15 0)
(0.398069 7.26249e-15 0)
(0.465693 -1.86008e-15 0)
(0.534239 -3.06834e-15 0)
(0.60374 -3.32197e-15 0)
(0.674199 2.16364e-15 0)
(0.745244 -4.43424e-15 0)
(0.815781 3.72434e-15 0)
(0.880548 1.1598e-15 0)
(0.928785 4.69045e-15 0)
(0.941953 2.8209e-15 0)
(0.923804 -6.60941e-17 0)
(0.925343 4.38595e-16 0)
(0.926708 -1.1276e-15 0)
(0.927103 -1.68426e-15 0)
(0.927485 -1.20066e-15 0)
(0.927876 -6.71266e-16 0)
(0.928529 -1.8399e-15 0)
(0.929386 -1.50898e-15 0)
(0.931454 -2.30016e-15 0)
(0.931263 -4.28809e-16 0)
(0.920553 2.59203e-16 0)
(0.923299 5.38524e-16 0)
(0.92957 -1.0445e-15 0)
(0.935615 -7.5131e-16 0)
(0.936013 -1.05934e-15 0)
(0.925504 -1.20241e-15 0)
(0.847512 8.26449e-17 0)
(0.530747 -1.47003e-15 0)
(0.08996 1.78098e-16 0)
(0.00147717 -1.59819e-15 0)
(1.67223e-06 2.16839e-16 0)
(9.49337e-11 -4.23922e-16 0)
(2.16446e-15 -1.70219e-16 0)
(1.25633e-16 -4.87889e-17 0)
(2.56184e-16 -1.0842e-16 0)
(1.2476e-16 -1.56125e-16 0)
(7.67266e-18 -2.60208e-17 0)
(-3.83246e-17 -1.57209e-16 0)
(-1.22191e-18 -2.94902e-16 0)
(5.91747e-17 -2.86228e-16 0)
(1.84764e-16 -2.32018e-16 0)
(7.48695e-17 -9.21569e-17 0)
(1.23351e-16 7.26413e-17 0)
(1.18246e-16 3.57785e-17 0)
(1.40426e-19 0 0)
(-3.27021e-16 0 0)
(-5.67996e-16 2.92734e-17 0)
(-5.249e-16 1.31188e-16 0)
(-3.31676e-16 -6.17993e-17 0)
(6.85261e-17 -1.0842e-18 0)
(4.08558e-16 0 0)
(4.72874e-16 -9.97462e-17 0)
(2.81928e-16 -2.21176e-16 0)
(-7.04015e-17 -1.51788e-17 0)
(-4.15486e-16 2.27682e-16 0)
(-6.08672e-16 1.25767e-16 0)
(-4.42691e-16 1.78893e-16 0)
(-3.39354e-16 2.03829e-16 0)
(5.1391e-16 4.77047e-16 0)
(2.61469e-16 1.84314e-16 0)
(-1.79155e-16 1.45283e-16 0)
(-2.67781e-16 -1.43114e-16 0)
(-5.54572e-17 2.1684e-18 0)
(2.2234e-16 1.30104e-17 0)
(3.88598e-16 3.59954e-16 0)
(1.38343e-16 6.07151e-16 0)
(-4.89586e-17 4.22837e-16 0)
(1.99476e-16 1.77809e-16 0)
(3.37552e-16 1.36609e-16 0)
(7.3034e-17 -1.36609e-16 0)
(-2.31544e-16 -7.80623e-17 0)
(-2.06403e-17 -2.66713e-16 0)
(2.17109e-16 -6.28835e-17 0)
(2.17563e-17 3.03576e-17 0)
(-2.58239e-16 3.10081e-16 0)
(-3.74597e-16 1.32272e-16 0)
(-1.19446e-16 0 0)
(6.36057e-17 0 0)
(2.29491e-16 0 0)
(-9.07308e-19 -3.03576e-17 0)
(-2.10558e-16 0 0)
(-2.78771e-17 0 0)
(-4.58202e-17 0 0)
(-1.59947e-16 0 0)
(-7.52335e-17 0 0)
(-2.43294e-17 0 0)
(-1.52562e-16 0 0)
(4.85476e-18 0 0)
(1.02583e-14 1.79977e-16 0)
(1.63166e-10 -2.14671e-16 0)
(2.32727e-07 2.43077e-15 0)
(4.07343e-05 7.91709e-15 0)
(0.00126866 -1.602e-14 0)
(0.0107919 1.22547e-14 0)
(0.0388377 -4.45219e-15 0)
(0.0846912 1.88112e-15 0)
(0.140859 -3.66899e-15 0)
(0.20207 3.02608e-15 0)
(0.26593 -4.18266e-15 0)
(0.331417 -1.75099e-15 0)
(0.398069 -1.66579e-15 0)
(0.465693 3.43248e-17 0)
(0.534239 -3.20243e-15 0)
(0.60374 -6.03531e-15 0)
(0.674199 1.78913e-15 0)
(0.745244 -4.70759e-15 0)
(0.815781 2.14397e-15 0)
(0.880548 2.92502e-15 0)
(0.928785 5.88024e-15 0)
(0.941953 3.29695e-15 0)
(0.923804 7.71625e-16 0)
(0.925343 1.30183e-15 0)
(0.926708 -3.11633e-15 0)
(0.927103 -3.89302e-15 0)
(0.927485 -7.27772e-16 0)
(0.927876 -1.82182e-15 0)
(0.928529 -1.86626e-15 0)
(0.929386 -4.93472e-16 0)
(0.931454 -2.37367e-15 0)
(0.931263 6.25365e-16 0)
(0.920553 -1.69283e-15 0)
(0.923299 -5.88226e-16 0)
(0.92957 -1.69308e-15 0)
(0.935615 -1.41107e-15 0)
(0.936013 -1.59591e-15 0)
(0.925504 -1.96782e-15 0)
(0.847512 -7.1808e-16 0)
(0.530747 -3.24425e-15 0)
(0.08996 -1.57571e-15 0)
(0.00147717 -5.22877e-15 0)
(1.67223e-06 8.81452e-16 0)
(9.4934e-11 1.34441e-16 0)
(2.10302e-15 -9.32411e-17 0)
(7.91028e-17 -1.0842e-16 0)
(2.11127e-16 -2.67797e-16 0)
(1.16805e-16 -3.43691e-16 0)
(7.54624e-18 -2.33103e-16 0)
(-1.15599e-16 -3.66459e-16 0)
(2.35639e-18 -5.25836e-16 0)
(1.01285e-16 -5.17163e-16 0)
(2.55851e-16 -4.55363e-16 0)
(1.35385e-16 -2.80807e-16 0)
(1.78073e-16 -7.37255e-17 0)
(1.49789e-16 0 0)
(1.34571e-17 0 0)
(-1.02316e-16 -6.72203e-17 0)
(-3.74913e-16 1.01915e-16 0)
(-5.58817e-16 3.13333e-16 0)
(-3.27334e-16 1.44198e-16 0)
(3.40587e-17 2.05998e-17 0)
(3.50309e-16 9.10727e-17 0)
(5.00951e-16 -2.64544e-16 0)
(3.42061e-16 -4.35848e-16 0)
(9.99685e-17 -1.89735e-16 0)
(-3.4748e-16 5.20415e-17 0)
(-5.60178e-16 3.05744e-16 0)
(-4.52984e-16 4.01153e-16 0)
(-5.54025e-16 4.18501e-16 0)
(7.32918e-16 2.51534e-16 0)
(3.41541e-16 1.04083e-16 0)
(-1.77087e-16 1.19262e-16 0)
(-3.26107e-16 2.01661e-16 0)
(1.53697e-17 9.97462e-17 0)
(3.78362e-16 2.62376e-16 0)
(5.69261e-16 1.79977e-16 0)
(2.15085e-16 3.29596e-16 0)
(-2.30461e-16 2.4286e-16 0)
(2.7831e-16 3.10081e-16 0)
(-2.14288e-17 8.67359e-18 0)
(-1.49254e-16 -2.53702e-16 0)
(-2.00598e-16 -6.50519e-18 0)
(-5.30731e-17 9.32411e-17 0)
(2.44766e-16 6.50519e-18 0)
(2.27887e-16 -1.77809e-16 0)
(-9.29188e-17 1.10588e-16 0)
(-4.59109e-16 2.34187e-16 0)
(-1.80599e-16 8.67359e-17 0)
(6.79179e-17 1.92987e-16 0)
(-1.68577e-16 3.46943e-17 0)
(-1.17473e-16 -2.25513e-16 0)
(1.38701e-16 3.68627e-17 0)
(1.26802e-16 2.60208e-16 0)
(-1.6157e-16 1.17093e-16 0)
(-3.25193e-16 2.38524e-17 0)
(-1.69967e-16 0 0)
(-5.29166e-17 0 0)
(-2.19167e-16 2.60208e-17 0)
(-4.30008e-17 -4.33679e-18 0)
(1.07087e-14 1.71303e-16 0)
(1.63165e-10 -8.45675e-17 0)
(2.32727e-07 1.97324e-15 0)
(4.07343e-05 7.8889e-15 0)
(0.00126866 -1.21344e-14 0)
(0.0107919 1.49047e-14 0)
(0.0388377 -9.78069e-15 0)
(0.0846912 1.12704e-15 0)
(0.140859 -1.15734e-15 0)
(0.20207 1.96921e-15 0)
(0.26593 -4.83108e-15 0)
(0.331417 2.72923e-15 0)
(0.398069 -9.97324e-15 0)
(0.465693 -1.14416e-16 0)
(0.534239 -2.9865e-15 0)
(0.60374 -5.29564e-15 0)
(0.674199 -5.68229e-16 0)
(0.745244 -4.42254e-15 0)
(0.815781 1.12607e-15 0)
(0.880548 -6.23664e-16 0)
(0.928785 4.83163e-15 0)
(0.941953 5.45466e-15 0)
(0.923804 3.62664e-15 0)
(0.925343 5.76866e-16 0)
(0.926708 -9.97073e-16 0)
(0.927103 -3.21874e-15 0)
(0.927485 -4.64157e-16 0)
(0.927876 -2.3309e-15 0)
(0.928529 -1.32928e-15 0)
(0.929386 -6.82517e-16 0)
(0.931454 -7.04208e-16 0)
(0.931263 3.34239e-16 0)
(0.920553 -2.20573e-15 0)
(0.923299 -1.22411e-15 0)
(0.92957 -2.15628e-15 0)
(0.935615 -1.72203e-15 0)
(0.936013 -2.79936e-15 0)
(0.925504 -2.84286e-15 0)
(0.847512 -1.24296e-15 0)
(0.530747 -3.02212e-15 0)
(0.08996 -2.22572e-15 0)
(0.00147717 -2.58786e-15 0)
(1.67223e-06 -1.11672e-16 0)
(9.4933e-11 4.30427e-16 0)
(2.05091e-15 -1.37693e-16 0)
(-4.42548e-17 1.19262e-17 0)
(1.04676e-16 -8.99885e-17 0)
(1.68806e-16 -1.5504e-16 0)
(-6.72803e-18 -9.8662e-17 0)
(-1.64123e-16 -2.1684e-16 0)
(1.24461e-17 -2.59123e-16 0)
(1.46362e-16 -2.78639e-16 0)
(3.21293e-16 -2.47197e-16 0)
(2.19563e-16 -2.62376e-16 0)
(2.60979e-16 -1.07336e-16 0)
(1.80461e-16 0 0)
(3.33726e-17 -9.43252e-17 0)
(5.57641e-17 -2.39608e-16 0)
(-8.22238e-17 -8.67359e-18 0)
(-3.17794e-16 2.32018e-16 0)
(-2.7119e-16 3.44775e-16 0)
(-7.07722e-17 1.44198e-16 0)
(1.86712e-16 2.05998e-17 0)
(2.41083e-16 -1.51788e-16 0)
(4.10779e-16 -2.65629e-16 0)
(2.09996e-16 -8.56517e-17 0)
(-1.63336e-16 -1.05167e-16 0)
(-4.11603e-16 1.5504e-16 0)
(-5.20314e-16 2.13587e-16 0)
(-6.8955e-16 2.87313e-16 0)
(5.22584e-16 -2.1684e-18 0)
(2.34081e-16 2.55871e-16 0)
(-1.12353e-16 2.99239e-16 0)
(-6.22589e-17 4.83552e-16 0)
(1.8398e-16 3.59954e-16 0)
(4.20017e-16 5.85467e-16 0)
(3.89654e-16 3.46943e-16 0)
(7.43038e-17 1.23599e-16 0)
(-4.51203e-17 1.97324e-16 0)
(-8.69706e-17 -5.85467e-17 0)
(-3.25979e-16 -3.16586e-16 0)
(-7.58355e-17 -6.50519e-17 0)
(-2.08065e-16 2.32018e-16 0)
(2.89749e-18 4.61868e-16 0)
(2.28287e-16 2.40692e-16 0)
(9.09e-17 4.33679e-18 0)
(-8.38511e-18 1.36609e-16 0)
(-2.74632e-16 4.01153e-16 0)
(-6.6956e-17 2.99239e-16 0)
(6.34662e-17 4.87889e-16 0)
(-1.74227e-16 2.53702e-16 0)
(-1.18312e-16 6.28835e-17 0)
(1.47031e-16 2.62376e-16 0)
(1.70795e-16 5.74625e-16 0)
(-1.85676e-16 3.75133e-16 0)
(-5.5418e-16 2.38524e-16 0)
(-3.09591e-16 2.81892e-17 0)
(-8.03097e-17 6.50519e-17 0)
(-2.62673e-16 8.23991e-17 0)
(-2.04037e-16 -2.08166e-16 0)
(1.08872e-14 -1.82145e-16 0)
(1.63165e-10 -6.00646e-16 0)
(2.32727e-07 -1.96457e-15 0)
(4.07343e-05 8.43969e-15 0)
(0.00126866 -7.49118e-15 0)
(0.0107919 8.04212e-15 0)
(0.0388377 -9.87034e-15 0)
(0.0846912 -1.45921e-15 0)
(0.140859 1.49255e-15 0)
(0.20207 1.2143e-15 0)
(0.26593 -4.53486e-15 0)
(0.331417 6.83321e-15 0)
(0.398069 -1.57036e-14 0)
(0.465693 -1.98757e-15 0)
(0.534239 -1.78667e-15 0)
(0.60374 -4.01703e-15 0)
(0.674199 -2.8183e-15 0)
(0.745244 -4.38851e-15 0)
(0.815781 1.75913e-15 0)
(0.880548 4.86288e-18 0)
(0.928785 2.39197e-15 0)
(0.941953 3.48989e-15 0)
(0.923804 3.21173e-15 0)
(0.925343 -6.23484e-16 0)
(0.926708 3.61646e-16 0)
(0.927103 -1.55305e-15 0)
(0.927485 -1.54482e-15 0)
(0.927876 -1.92675e-15 0)
(0.928529 -1.44999e-16 0)
(0.929386 -1.49319e-15 0)
(0.931454 6.93348e-16 0)
(0.931263 -8.01988e-16 0)
(0.920553 1.97655e-16 0)
(0.923299 -1.06014e-15 0)
(0.92957 -3.14122e-15 0)
(0.935615 -2.41759e-15 0)
(0.936013 -1.51262e-15 0)
(0.925504 -3.51046e-15 0)
(0.847512 -3.06224e-15 0)
(0.530747 -1.27336e-16 0)
(0.08996 -2.25289e-15 0)
(0.00147717 1.76061e-15 0)
(1.67223e-06 -6.80875e-16 0)
(9.49327e-11 -3.96817e-16 0)
(2.22758e-15 8.56517e-17 0)
(7.6477e-17 1.68051e-16 0)
(2.25344e-16 2.01661e-16 0)
(1.04665e-16 3.36101e-17 0)
(-8.61207e-17 -6.50519e-17 0)
(-5.16936e-17 9.75778e-17 0)
(1.08131e-16 1.70219e-16 0)
(6.82241e-18 6.61361e-17 0)
(9.65915e-17 6.28835e-17 0)
(2.45283e-16 -4.66205e-17 0)
(2.80695e-16 -6.50519e-18 0)
(9.23008e-17 -1.0842e-18 0)
(-6.81859e-17 -1.59377e-16 0)
(7.91017e-17 -5.63783e-17 0)
(1.41217e-16 0 0)
(-3.5752e-17 -1.95156e-17 0)
(-1.85399e-16 1.48535e-16 0)
(-1.21818e-16 4.66205e-17 0)
(5.1488e-17 1.57209e-16 0)
(1.92285e-16 2.04913e-16 0)
(3.1619e-16 8.23991e-17 0)
(1.08596e-16 -1.35525e-16 0)
(-2.39986e-16 -2.25513e-16 0)
(-4.47399e-16 -1.6263e-17 0)
(-4.71154e-16 1.84314e-17 0)
(-5.99562e-16 1.2143e-16 0)
(7.3075e-16 -2.25513e-16 0)
(3.40763e-16 -9.97462e-17 0)
(-1.08825e-16 -4.11995e-17 0)
(-1.429e-16 2.12503e-16 0)
(2.11365e-16 1.77809e-16 0)
(5.54756e-16 2.99239e-16 0)
(2.11445e-16 -3.90311e-17 0)
(-4.16583e-17 -3.75133e-16 0)
(-2.69451e-16 -2.21176e-16 0)
(-4.53147e-16 -4.27174e-16 0)
(-1.13185e-16 -9.54094e-17 0)
(1.75639e-16 2.08166e-16 0)
(-2.60336e-17 5.42099e-17 0)
(-2.12118e-16 2.47197e-16 0)
(-3.56241e-17 -4.33679e-18 0)
(2.74864e-16 -5.85467e-17 0)
(1.9266e-16 -1.6263e-16 0)
(7.72105e-18 1.95156e-17 0)
(6.38076e-18 4.33679e-18 0)
(3.96631e-17 6.72203e-17 0)
(-1.42766e-16 -1.12757e-16 0)
(-9.40405e-17 4.33679e-18 0)
(1.45758e-16 8.02307e-17 0)
(4.15003e-17 2.01661e-16 0)
(-3.39009e-16 8.67359e-18 0)
(-7.10577e-16 6.50519e-18 0)
(-4.88314e-16 0 0)