/*--------------------------------*- C++ -*----------------------------------*\
| =========                 |                                                 |
| \\      /  F ield         | OpenFOAM: The Open Source CFD Toolbox           |
|  \\    /   O peration     | Version:  4.1                                   |
|   \\  /    A nd           | Web:      www.OpenFOAM.org                      |
|    \\/     M anipulation  |                                                 |
\*---------------------------------------------------------------------------*/
FoamFile
{
    version     2.0;
    format      ascii;
    class       volVectorField;
    location    "0.4";
    object      U;
}
// * * * * * * * * * * * * * * * * * * * * * * * * * * * * * * * * * * * * * //

dimensions      [0 1 -1 0 0 0 0];

internalField   nonuniform List<vector> 
10000
(
(0 0 0)
(1.96079e-16 0 0)
(3.11167e-16 0 0)
(1.02238e-16 1.58293e-16 0)
(-1.21238e-16 0 0)
(-3.07441e-16 0 0)
(-2.82686e-16 0 0)
(-5.48611e-17 0 0)
(-3.7232e-20 0 0)
(2.54519e-16 1.53956e-16 0)
(5.21601e-16 0 0)
(1.84365e-16 -1.56125e-16 0)
(-1.91934e-16 0 0)
(6.227e-17 0 0)
(1.64194e-16 0 0)
(-5.24951e-17 1.34441e-16 0)
(-2.64553e-16 0 0)
(-1.56398e-16 0 0)
(-5.17783e-17 0 0)
(3.25847e-15 0 0)
(5.63595e-11 1.10588e-16 0)
(8.62626e-08 3.98551e-15 0)
(1.64041e-05 -1.85834e-15 0)
(0.000557263 1.08796e-14 0)
(0.00513039 -9.19046e-16 0)
(0.0196065 -6.08731e-15 0)
(0.0444366 -1.37464e-14 0)
(0.0755915 6.73778e-15 0)
(0.109857 -3.21767e-15 0)
(0.145703 5.35176e-15 0)
(0.182475 2.23333e-14 0)
(0.219865 2.35217e-14 0)
(0.257701 1.71912e-14 0)
(0.295878 1.50769e-14 0)
(0.334328 -4.32803e-15 0)
(0.373007 4.24661e-14 0)
(0.411887 -1.77083e-14 0)
(0.450955 2.48241e-15 0)
(0.490203 -4.87799e-15 0)
(0.529632 7.26903e-15 0)
(0.569246 -2.26595e-15 0)
(0.609049 3.45685e-14 0)
(0.649042 5.23407e-14 0)
(0.689212 1.05376e-13 0)
(0.729521 3.83627e-14 0)
(0.769892 6.86712e-14 0)
(0.810122 4.02237e-14 0)
(0.849713 -4.79909e-14 0)
(0.887069 8.63703e-16 0)
(0.917901 1.40608e-13 0)
(0.933723 2.96041e-14 0)
(0.933765 1.3583e-14 0)
(0.925409 3.03471e-15 0)
(0.926709 -3.28172e-15 0)
(0.927569 -6.5204e-17 0)
(0.927806 6.54436e-15 0)
(0.927986 1.05281e-14 0)
(0.928149 1.54407e-14 0)
(0.92842 1.47869e-14 0)
(0.928505 9.99115e-15 0)
(0.92828 9.75506e-15 0)
(0.92814 1.01026e-14 0)
(0.928138 8.16113e-15 0)
(0.928137 8.15382e-15 0)
(0.928096 2.82639e-15 0)
(0.928073 4.43747e-15 0)
(0.928178 3.92198e-15 0)
(0.928516 -2.01599e-15 0)
(0.928808 7.9989e-15 0)
(0.929593 -1.05209e-14 0)
(0.930169 -1.72915e-14 0)
(0.924678 -1.32806e-14 0)
(0.924893 -1.0481e-14 0)
(0.927005 -8.42104e-15 0)
(0.928184 -5.71215e-15 0)
(0.929168 -6.28268e-15 0)
(0.929309 -6.60332e-15 0)
(0.92857 -7.24638e-15 0)
(0.927334 -2.61125e-15 0)
(0.926211 -2.77825e-15 0)
(0.925564 -4.81396e-15 0)
(0.924811 -4.85819e-15 0)
(0.921986 -5.15058e-15 0)
(0.904442 -5.53088e-15 0)
(0.806504 -5.28686e-15 0)
(0.458984 -3.17511e-15 0)
(0.0618985 -1.00863e-16 0)
(0.00079022 3.61867e-16 0)
(6.94437e-07 9.75778e-18 0)
(3.11862e-11 1.57209e-16 0)
(3.40754e-16 -6.50519e-18 0)
(-4.81087e-16 2.1684e-18 0)
(-2.87102e-16 1.20346e-16 0)
(2.36088e-17 0 0)
(2.44088e-16 0 0)
(-4.72024e-18 0 0)
(-2.70816e-16 2.04913e-16 0)
(-3.5521e-16 1.90819e-16 0)
(-3.12584e-16 1.2143e-16 0)
(-1.82145e-16 1.95156e-16 0)
(0 0 0)
(2.29268e-16 0 0)
(3.17178e-16 1.38777e-16 0)
(1.02786e-16 3.42607e-16 0)
(-1.19922e-16 1.27935e-16 0)
(-3.23453e-16 2.64544e-16 0)
(-3.24948e-16 4.98731e-17 0)
(-6.38217e-17 0 0)
(-5.70359e-19 0 0)
(2.49996e-16 0 0)
(5.5375e-16 0 0)
(1.923e-16 0 0)
(-1.69521e-16 0 0)
(7.62052e-17 0 0)
(1.63352e-16 1.30104e-16 0)
(-5.82728e-17 3.18754e-16 0)
(-2.70251e-16 1.27935e-16 0)
(-1.63659e-16 0 0)
(-6.87924e-17 0 0)
(3.25881e-15 0 0)
(5.63599e-11 3.01407e-16 0)
(8.62627e-08 7.28148e-15 0)
(1.64041e-05 -1.97761e-15 0)
(0.000557263 2.47531e-14 0)
(0.00513039 4.76946e-15 0)
(0.0196065 -2.09142e-14 0)
(0.0444366 -5.47647e-15 0)
(0.0755915 2.49669e-14 0)
(0.109857 -5.31833e-15 0)
(0.145703 -2.66912e-15 0)
(0.182475 3.01101e-14 0)
(0.219865 4.97952e-15 0)
(0.257701 1.09062e-14 0)
(0.295878 1.53208e-14 0)
(0.334328 4.19024e-15 0)
(0.373007 2.84084e-14 0)
(0.411887 -1.19761e-14 0)
(0.450955 2.40391e-14 0)
(0.490203 6.4973e-15 0)
(0.529632 5.43531e-15 0)
(0.569246 8.33368e-15 0)
(0.609049 3.74836e-14 0)
(0.649042 3.16912e-14 0)
(0.689212 4.58441e-14 0)
(0.729521 1.73009e-14 0)
(0.769892 5.67255e-14 0)
(0.810122 2.59235e-14 0)
(0.849713 1.98752e-14 0)
(0.887069 6.97559e-16 0)
(0.917901 7.48313e-14 0)
(0.933723 3.14489e-14 0)
(0.933765 1.9439e-14 0)
(0.925409 8.5053e-15 0)
(0.926709 6.65464e-15 0)
(0.927569 6.52421e-15 0)
(0.927806 1.08393e-14 0)
(0.927986 1.04117e-14 0)
(0.928149 7.1868e-15 0)
(0.92842 4.41919e-15 0)
(0.928505 8.75684e-15 0)
(0.92828 1.0993e-14 0)
(0.92814 1.11697e-14 0)
(0.928138 9.73277e-15 0)
(0.928137 1.05548e-14 0)
(0.928096 5.73688e-15 0)
(0.928073 7.02538e-15 0)
(0.928178 -6.7561e-16 0)
(0.928516 5.88604e-15 0)
(0.928808 6.37034e-16 0)
(0.929593 1.54557e-15 0)
(0.930169 -4.23936e-15 0)
(0.924678 -8.52691e-15 0)
(0.924893 -9.97159e-15 0)
(0.927005 -8.03799e-15 0)
(0.928184 -4.08275e-15 0)
(0.929168 -2.19717e-15 0)
(0.929309 -9.32276e-16 0)
(0.92857 -3.11942e-16 0)
(0.927334 3.12336e-15 0)
(0.926211 2.02046e-15 0)
(0.925564 2.81825e-15 0)
(0.924811 1.5179e-15 0)
(0.921986 3.57793e-16 0)
(0.904442 -1.6827e-15 0)
(0.806504 -1.14665e-15 0)
(0.458984 -2.6883e-15 0)
(0.0618985 -3.2945e-15 0)
(0.00079022 1.68582e-15 0)
(6.94437e-07 -2.47197e-16 0)
(3.11858e-11 3.54533e-16 0)
(4.53246e-16 3.90311e-17 0)
(-3.34957e-16 2.10334e-16 0)
(-2.14249e-16 3.23091e-16 0)
(-9.61151e-18 1.32272e-16 0)
(2.03958e-16 1.84314e-17 0)
(-3.31782e-17 7.91465e-17 0)
(-2.97904e-16 3.3827e-16 0)
(-4.09333e-16 3.94648e-16 0)
(-4.19372e-16 3.06828e-16 0)
(-3.87059e-16 3.98985e-16 0)
(0 0 0)
(2.60345e-16 0 0)
(5.23095e-16 0 0)
(1.13882e-16 1.06251e-16 0)
(-3.53353e-16 3.44775e-16 0)
(-3.25645e-16 5.96309e-16 0)
(-3.52176e-16 2.73218e-16 0)
(-4.93301e-17 0 0)
(-4.95733e-18 0 0)
(2.5174e-16 0 0)
(5.78888e-16 0 0)
(2.14564e-16 2.1684e-18 0)
(-1.40256e-16 9.10727e-17 0)
(8.61176e-17 3.16586e-16 0)
(3.27753e-16 1.92987e-16 0)
(-4.00209e-17 8.89043e-17 0)
(-4.09509e-16 0 0)
(-1.69326e-16 0 0)
(-9.15839e-17 1.06251e-16 0)
(3.21973e-15 3.90311e-17 0)
(5.6361e-11 2.28332e-15 0)
(8.62627e-08 2.18141e-15 0)
(1.64041e-05 2.49803e-15 0)
(0.000557263 2.25663e-14 0)
(0.00513039 2.30459e-14 0)
(0.0196065 -2.03587e-14 0)
(0.0444366 -2.67181e-15 0)
(0.0755915 2.96557e-14 0)
(0.109857 -5.3874e-15 0)
(0.145703 -1.00157e-14 0)
(0.182475 3.17232e-14 0)
(0.219865 4.63882e-16 0)
(0.257701 9.77496e-15 0)
(0.295878 1.35269e-14 0)
(0.334328 5.46805e-15 0)
(0.373007 2.47321e-14 0)
(0.411887 -8.78571e-15 0)
(0.450955 2.84188e-14 0)
(0.490203 1.1768e-14 0)
(0.529632 6.93279e-16 0)
(0.569246 1.37054e-14 0)
(0.609049 3.59967e-14 0)
(0.649042 2.5074e-14 0)
(0.689212 2.17506e-14 0)
(0.729521 1.12628e-14 0)
(0.769892 4.63302e-14 0)
(0.810122 1.81761e-14 0)
(0.849713 3.19265e-14 0)
(0.887069 2.08657e-15 0)
(0.917901 5.30914e-14 0)
(0.933723 2.24971e-14 0)
(0.933765 1.43834e-14 0)
(0.925409 9.38115e-15 0)
(0.926709 1.22555e-14 0)
(0.927569 5.084e-15 0)
(0.927806 7.45673e-15 0)
(0.927986 5.9911e-15 0)
(0.928149 5.13629e-15 0)
(0.92842 1.52298e-15 0)
(0.928505 4.82345e-15 0)
(0.92828 9.75506e-15 0)
(0.92814 1.02451e-14 0)
(0.928138 1.01434e-14 0)
(0.928137 1.18984e-14 0)
(0.928096 6.57982e-15 0)
(0.928073 8.39933e-15 0)
(0.928178 -1.28693e-15 0)
(0.928516 7.14296e-15 0)
(0.928808 -3.83499e-15 0)
(0.929593 3.91458e-15 0)
(0.930169 8.00205e-16 0)
(0.924678 -3.355e-15 0)
(0.924893 -6.04026e-15 0)
(0.927005 -5.45224e-15 0)
(0.928184 -2.28126e-15 0)
(0.929168 5.27875e-16 0)
(0.929309 4.56144e-15 0)
(0.92857 5.8936e-15 0)
(0.927334 4.92342e-15 0)
(0.926211 6.77411e-15 0)
(0.925564 5.47271e-15 0)
(0.924811 4.11306e-15 0)
(0.921986 4.67028e-15 0)
(0.904442 2.9507e-15 0)
(0.806504 3.31498e-15 0)
(0.458984 -7.46294e-16 0)
(0.0618985 -5.27985e-15 0)
(0.00079022 6.05748e-15 0)
(6.94437e-07 -1.58727e-15 0)
(3.11854e-11 4.38016e-16 0)
(6.10289e-16 2.04913e-16 0)
(-1.48276e-16 4.08743e-16 0)
(-1.65754e-16 5.30173e-16 0)
(-7.51225e-17 3.96817e-16 0)
(9.97565e-17 2.93818e-16 0)
(-1.32139e-17 1.78893e-16 0)
(-2.52471e-16 3.88143e-16 0)
(-4.62881e-16 5.98477e-16 0)
(-5.3021e-16 5.05236e-16 0)
(-5.96309e-16 6.08235e-16 0)
(-2.1684e-18 -2.1684e-18 0)
(2.65834e-16 -2.1684e-18 0)
(5.65665e-16 -2.1684e-18 0)
(1.61625e-16 3.90311e-17 0)
(-3.10088e-16 2.86228e-16 0)
(-6.96367e-16 2.21176e-16 0)
(-3.78441e-16 -2.1684e-18 0)
(-2.47654e-17 -2.1684e-18 0)
(-1.89157e-17 0 0)
(1.75161e-16 0 0)
(4.1656e-16 -4.33679e-18 0)
(2.43523e-16 -5.20415e-17 0)
(1.24759e-16 3.05744e-16 0)
(1.75168e-16 6.59193e-16 0)
(2.90768e-16 4.01153e-16 0)
(-5.3374e-17 2.60208e-17 0)
(-3.99113e-16 -2.1684e-18 0)
(-1.80342e-16 1.17093e-16 0)
(-8.85143e-17 3.59954e-16 0)
(3.26325e-15 2.51534e-16 0)
(5.63647e-11 2.55003e-15 0)
(8.62627e-08 1.10805e-15 0)
(1.64041e-05 1.59163e-15 0)
(0.000557263 1.24633e-14 0)
(0.00513039 3.78769e-14 0)
(0.0196065 -2.8611e-14 0)
(0.0444366 -6.53484e-15 0)
(0.0755915 3.31674e-14 0)
(0.109857 -1.63742e-15 0)
(0.145703 -1.45899e-14 0)
(0.182475 3.04221e-14 0)
(0.219865 1.07453e-15 0)
(0.257701 8.24131e-15 0)
(0.295878 1.32747e-14 0)
(0.334328 3.91466e-15 0)
(0.373007 2.08681e-14 0)
(0.411887 -9.64592e-15 0)
(0.450955 2.96519e-14 0)
(0.490203 1.63168e-14 0)
(0.529632 -3.31561e-15 0)
(0.569246 1.91437e-14 0)
(0.609049 2.97353e-14 0)
(0.649042 1.81775e-14 0)
(0.689212 9.82173e-15 0)
(0.729521 9.40222e-15 0)
(0.769892 3.88299e-14 0)
(0.810122 1.61674e-14 0)
(0.849713 3.63882e-14 0)
(0.887069 -2.65341e-15 0)
(0.917901 3.62963e-14 0)
(0.933723 1.85928e-14 0)
(0.933765 1.42318e-14 0)
(0.925409 1.19027e-14 0)
(0.926709 9.09519e-15 0)
(0.927569 6.3232e-15 0)
(0.927806 5.92275e-15 0)
(0.927986 4.37538e-15 0)
(0.928149 8.32417e-15 0)
(0.92842 -9.60845e-16 0)
(0.928505 3.50108e-15 0)
(0.92828 7.02938e-15 0)
(0.92814 8.48456e-15 0)
(0.928138 1.32e-14 0)
(0.928137 1.10237e-14 0)
(0.928096 4.30784e-15 0)
(0.928073 6.0745e-15 0)
(0.928178 -8.18297e-17 0)
(0.928516 7.39134e-15 0)
(0.928808 -3.86137e-15 0)
(0.929593 6.65214e-15 0)
(0.930169 1.09023e-15 0)
(0.924678 -9.78415e-16 0)
(0.924893 -2.25117e-15 0)
(0.927005 -2.48137e-15 0)
(0.928184 1.45526e-15 0)
(0.929168 1.5549e-15 0)
(0.929309 7.67039e-15 0)
(0.92857 7.84465e-15 0)
(0.927334 5.40788e-15 0)
(0.926211 1.09103e-14 0)
(0.925564 8.53154e-15 0)
(0.924811 8.28343e-15 0)
(0.921986 6.45924e-15 0)
(0.904442 4.89792e-15 0)
(0.806504 5.07577e-15 0)
(0.458984 4.92793e-16 0)
(0.0618985 -8.8718e-16 0)
(0.00079022 3.26222e-15 0)
(6.94437e-07 -1.12214e-15 0)
(3.11851e-11 6.27751e-16 0)
(6.83802e-16 5.31257e-17 0)
(-1.7492e-17 2.13587e-16 0)
(-2.15934e-16 4.08743e-16 0)
(-2.04903e-16 6.04983e-16 0)
(-1.02194e-16 5.83299e-16 0)
(-1.80462e-16 4.22837e-16 0)
(-1.50755e-16 2.86228e-16 0)
(-3.66802e-16 3.5887e-16 0)
(-6.72053e-16 2.65629e-16 0)
(-8.51096e-16 3.55617e-16 0)
(-2.1684e-18 2.1684e-18 0)
(2.60975e-16 2.1684e-18 0)
(5.86296e-16 2.1684e-18 0)
(1.54027e-16 1.64798e-16 0)
(-6.45645e-16 -1.6263e-16 0)
(-6.85124e-16 -5.44268e-16 0)
(-3.33977e-16 -2.40692e-16 0)
(9.09745e-18 2.1684e-18 0)
(-3.57411e-17 0 0)
(1.89167e-16 -2.1684e-18 0)
(4.38072e-16 1.04083e-16 0)
(2.58488e-16 2.86228e-16 0)
(3.39752e-16 1.2143e-16 0)
(1.58603e-16 2.90565e-16 0)
(2.98377e-16 1.0842e-16 0)
(-5.96824e-17 9.32411e-17 0)
(-4.16288e-16 2.1684e-18 0)
(-1.84977e-16 2.1684e-18 0)
(-1.13573e-16 -2.1684e-18 0)
(3.09371e-15 3.46943e-17 0)
(5.63661e-11 7.71949e-16 0)
(8.62627e-08 2.72134e-15 0)
(1.64041e-05 -3.79258e-15 0)
(0.000557263 4.19999e-15 0)
(0.00513039 4.23328e-14 0)
(0.0196065 -2.70479e-14 0)
(0.0444366 -4.57799e-15 0)
(0.0755915 3.25361e-14 0)
(0.109857 -5.59699e-17 0)
(0.145703 -1.93287e-14 0)
(0.182475 2.61405e-14 0)
(0.219865 -1.96167e-15 0)
(0.257701 6.02891e-15 0)
(0.295878 1.07843e-14 0)
(0.334328 -2.39753e-15 0)
(0.373007 1.76304e-14 0)
(0.411887 -1.2379e-14 0)
(0.450955 2.72501e-14 0)
(0.490203 1.79679e-14 0)
(0.529632 -6.39723e-15 0)
(0.569246 2.17604e-14 0)
(0.609049 2.26393e-14 0)
(0.649042 1.75445e-14 0)
(0.689212 4.08643e-15 0)
(0.729521 8.63057e-15 0)
(0.769892 3.39436e-14 0)
(0.810122 1.30829e-14 0)
(0.849713 3.06704e-14 0)
(0.887069 -1.67732e-15 0)
(0.917901 2.84084e-14 0)
(0.933723 1.28977e-14 0)
(0.933765 7.6201e-15 0)
(0.925409 7.8538e-15 0)
(0.926709 2.25847e-15 0)
(0.927569 6.50131e-15 0)
(0.927806 6.49664e-15 0)
(0.927986 3.98664e-15 0)
(0.928149 1.19929e-14 0)
(0.92842 -4.79977e-15 0)
(0.928505 3.83612e-15 0)
(0.92828 7.00777e-15 0)
(0.92814 8.69854e-15 0)
(0.928138 1.4226e-14 0)
(0.928137 6.35068e-15 0)
(0.928096 4.50612e-15 0)
(0.928073 2.70789e-15 0)
(0.928178 2.87435e-16 0)
(0.928516 8.61786e-15 0)
(0.928808 -4.59712e-15 0)
(0.929593 6.81506e-15 0)
(0.930169 6.26955e-16 0)
(0.924678 3.49542e-15 0)
(0.924893 -2.23833e-15 0)
(0.927005 1.00006e-15 0)
(0.928184 6.0142e-15 0)
(0.929168 1.2589e-15 0)
(0.929309 7.96919e-15 0)
(0.92857 5.01976e-15 0)
(0.927334 4.58748e-15 0)
(0.926211 1.14259e-14 0)
(0.925564 1.02191e-14 0)
(0.924811 7.42264e-15 0)
(0.921986 5.1675e-15 0)
(0.904442 4.8974e-15 0)
(0.806504 4.67328e-15 0)
(0.458984 4.80305e-15 0)
(0.0618985 7.33827e-16 0)
(0.00079022 1.80825e-15 0)
(6.94437e-07 7.6978e-16 0)
(3.11842e-11 -5.96309e-17 0)
(8.69918e-16 -1.45283e-16 0)
(9.86314e-17 -1.18178e-16 0)
(4.58467e-17 6.39677e-17 0)
(5.05829e-17 4.61868e-16 0)
(3.132e-17 7.18823e-16 0)
(-1.96838e-16 6.4293e-16 0)
(-3.74731e-16 2.37439e-16 0)
(-5.96789e-16 -1.0842e-16 0)
(-8.40419e-16 -7.04729e-17 0)
(-1.02674e-15 -1.94071e-16 0)
(0 0 0)
(2.32663e-16 -6.50519e-18 0)
(3.092e-16 -2.21176e-16 0)
(-1.43354e-16 -4.70542e-16 0)
(-7.10862e-16 -6.2233e-16 0)
(-4.00206e-16 -2.75386e-16 0)
(-5.81757e-17 -2.1684e-17 0)
(7.1254e-17 0 0)
(-4.05882e-17 0 0)
(2.018e-16 7.37255e-17 0)
(4.58484e-16 3.66459e-16 0)
(2.5814e-16 5.57278e-16 0)
(-1.83561e-17 2.79723e-16 0)
(6.56959e-17 -7.15571e-17 0)
(3.02622e-16 -6.50519e-17 0)
(-5.45075e-17 -9.54094e-17 0)
(-4.0899e-16 0 0)
(-2.61801e-16 -1.01915e-16 0)
(-6.41346e-17 -3.64291e-16 0)
(3.48783e-15 -1.51788e-16 0)
(5.63675e-11 8.45675e-16 0)
(8.62627e-08 -2.38524e-17 0)
(1.64041e-05 -6.87174e-15 0)
(0.000557263 5.24999e-16 0)
(0.00513039 3.42312e-14 0)
(0.0196065 -1.53054e-14 0)
(0.0444366 -9.08054e-15 0)
(0.0755915 2.88637e-14 0)
(0.109857 -7.97869e-17 0)
(0.145703 -1.68475e-14 0)
(0.182475 2.32351e-14 0)
(0.219865 -2.79508e-15 0)
(0.257701 6.47599e-15 0)
(0.295878 9.01141e-15 0)
(0.334328 -6.37021e-15 0)
(0.373007 1.44317e-14 0)
(0.411887 -1.1385e-14 0)
(0.450955 2.4455e-14 0)
(0.490203 1.68816e-14 0)
(0.529632 -8.28121e-15 0)
(0.569246 2.03181e-14 0)
(0.609049 1.53857e-14 0)
(0.649042 1.44734e-14 0)
(0.689212 4.61322e-16 0)
(0.729521 8.20653e-15 0)
(0.769892 2.73644e-14 0)
(0.810122 1.49592e-14 0)
(0.849713 2.04791e-14 0)
(0.887069 5.52672e-15 0)
(0.917901 2.46024e-14 0)
(0.933723 9.89811e-15 0)
(0.933765 6.84427e-15 0)
(0.925409 4.72834e-15 0)
(0.926709 3.66909e-15 0)
(0.927569 6.6613e-15 0)
(0.927806 4.95217e-15 0)
(0.927986 2.63592e-15 0)
(0.928149 1.08658e-14 0)
(0.92842 -4.89929e-15 0)
(0.928505 2.67651e-15 0)
(0.92828 4.80014e-15 0)
(0.92814 7.43341e-15 0)
(0.928138 1.0639e-14 0)
(0.928137 2.86249e-15 0)
(0.928096 4.62645e-15 0)
(0.928073 2.5433e-15 0)
(0.928178 -1.2687e-16 0)
(0.928516 6.73999e-15 0)
(0.928808 -6.27922e-15 0)
(0.929593 5.55923e-15 0)
(0.930169 2.17568e-15 0)
(0.924678 2.65693e-15 0)
(0.924893 -3.11076e-15 0)
(0.927005 3.65573e-16 0)
(0.928184 5.8791e-15 0)
(0.929168 2.47983e-15 0)
(0.929309 5.8125e-15 0)
(0.92857 2.15593e-15 0)
(0.927334 2.32037e-15 0)
(0.926211 6.55086e-15 0)
(0.925564 7.67623e-15 0)
(0.924811 3.93854e-15 0)
(0.921986 3.4262e-15 0)
(0.904442 3.76763e-15 0)
(0.806504 9.77776e-16 0)
(0.458984 5.18143e-15 0)
(0.0618985 -1.58601e-15 0)
(0.00079022 2.43556e-15 0)
(6.94437e-07 1.5916e-15 0)
(3.11851e-11 -5.67036e-16 0)
(6.59841e-16 1.30104e-17 0)
(2.82596e-17 -2.59123e-16 0)
(2.96387e-16 -1.89735e-16 0)
(3.69313e-16 1.43114e-16 0)
(1.35396e-16 4.56447e-16 0)
(-2.94834e-16 4.08743e-16 0)
(-6.04075e-16 -3.25259e-18 0)
(-7.9813e-16 -2.65629e-16 0)
(-6.95184e-16 -2.4286e-16 0)
(-7.9797e-16 -3.45859e-16 0)
(4.11995e-17 0 0)
(2.65674e-16 -1.8865e-16 0)
(-1.34667e-17 -5.42099e-16 0)
(-1.91384e-16 -9.194e-16 0)
(-3.68525e-16 -7.26413e-16 0)
(-4.66482e-17 -3.72964e-16 0)
(2.23707e-16 0 0)
(1.74615e-16 2.81892e-17 0)
(-2.53689e-17 0 0)
(2.15271e-16 0 0)
(4.27823e-16 1.0842e-16 0)
(3.6095e-17 2.77555e-16 0)
(-2.80889e-16 1.51788e-17 0)
(-2.63021e-17 -5.20415e-17 0)
(2.30777e-16 0 0)
(-3.03209e-17 -9.32411e-17 0)
(-2.95737e-16 0 0)
(-3.12736e-16 0 0)
(-1.11281e-16 -1.19262e-16 0)
(3.71145e-15 -2.1684e-18 0)
(5.63681e-11 9.75778e-17 0)
(8.62627e-08 -5.72457e-16 0)
(1.64041e-05 -4.03544e-15 0)
(0.000557263 4.469e-16 0)
(0.00513039 1.14031e-14 0)
(0.0196065 3.70177e-15 0)
(0.0444366 -1.30517e-14 0)
(0.0755915 2.57278e-14 0)
(0.109857 -3.5142e-15 0)
(0.145703 -1.10094e-14 0)
(0.182475 2.01216e-14 0)
(0.219865 -3.54463e-15 0)
(0.257701 6.41367e-15 0)
(0.295878 1.0197e-14 0)
(0.334328 -6.11204e-15 0)
(0.373007 1.17151e-14 0)
(0.411887 -6.75261e-15 0)
(0.450955 1.95272e-14 0)
(0.490203 1.33338e-14 0)
(0.529632 -6.66068e-15 0)
(0.569246 1.60955e-14 0)
(0.609049 1.27543e-14 0)
(0.649042 1.30222e-14 0)
(0.689212 1.17546e-15 0)
(0.729521 8.78029e-15 0)
(0.769892 1.95984e-14 0)
(0.810122 2.06944e-14 0)
(0.849713 8.63144e-15 0)
(0.887069 1.65741e-14 0)
(0.917901 1.82212e-14 0)
(0.933723 1.11735e-14 0)
(0.933765 1.02534e-14 0)
(0.925409 6.04307e-15 0)
(0.926709 5.687e-15 0)
(0.927569 8.23256e-15 0)
(0.927806 3.76654e-15 0)
(0.927986 4.37347e-15 0)
(0.928149 8.07958e-15 0)
(0.92842 -1.49214e-15 0)
(0.928505 3.45753e-15 0)
(0.92828 2.84995e-15 0)
(0.92814 4.92413e-15 0)
(0.928138 6.16839e-15 0)
(0.928137 3.99642e-15 0)
(0.928096 3.86017e-15 0)
(0.928073 3.62672e-15 0)
(0.928178 1.09989e-15 0)
(0.928516 4.32761e-15 0)
(0.928808 -4.62269e-15 0)
(0.929593 4.72699e-15 0)
(0.930169 2.94621e-15 0)
(0.924678 1.61183e-15 0)
(0.924893 -6.75248e-16 0)
(0.927005 7.60454e-16 0)
(0.928184 3.52284e-15 0)
(0.929168 3.8244e-15 0)
(0.929309 3.14329e-15 0)
(0.92857 1.46956e-15 0)
(0.927334 1.45951e-15 0)
(0.926211 3.54885e-15 0)
(0.925564 3.40176e-15 0)
(0.924811 2.61819e-15 0)
(0.921986 2.26876e-15 0)
(0.904442 2.7314e-15 0)
(0.806504 7.79631e-16 0)
(0.458984 1.56512e-15 0)
(0.0618985 -1.8217e-16 0)
(0.00079022 9.25253e-16 0)
(6.94437e-07 5.30173e-16 0)
(3.11854e-11 -4.77047e-17 0)
(4.28285e-16 -1.84314e-17 0)
(-1.09225e-17 -1.06251e-16 0)
(4.12785e-16 -9.8662e-17 0)
(4.89883e-16 0 0)
(1.99694e-16 0 0)
(-3.24193e-16 7.04729e-17 0)
(-6.60509e-16 8.78201e-17 0)
(-6.99908e-16 -6.07151e-17 0)
(-5.98894e-16 -3.57785e-17 0)
(-5.86551e-16 -1.36609e-16 0)
(3.9248e-16 1.99492e-16 0)
(3.79239e-16 0 0)
(-2.55504e-17 -2.23345e-16 0)
(-1.3371e-16 -5.72457e-16 0)
(-7.64821e-17 -3.40438e-16 0)
(1.02418e-16 -3.46943e-17 0)
(4.24511e-16 2.2985e-16 0)
(2.16666e-16 4.38016e-16 0)
(2.81945e-18 2.86228e-16 0)
(2.64433e-16 8.89043e-17 0)
(4.37137e-16 0 0)
(7.10912e-17 0 0)
(-2.99993e-16 0 0)
(-8.17605e-18 -7.37255e-17 0)
(2.38833e-16 0 0)
(-4.96597e-17 9.32411e-17 0)
(-3.57881e-16 9.54094e-17 0)
(-4.52321e-16 0 0)
(-1.93666e-16 0 0)
(3.7265e-15 2.1684e-18 0)
(5.63681e-11 -1.84314e-16 0)
(8.62627e-08 4.33679e-16 0)
(1.64041e-05 -3.1594e-15 0)
(0.000557263 3.19772e-15 0)
(0.00513039 -1.05037e-14 0)
(0.0196065 1.69192e-14 0)
(0.0444366 -1.37238e-14 0)
(0.0755915 2.08169e-14 0)
(0.109857 -6.63541e-15 0)
(0.145703 -7.20283e-15 0)
(0.182475 1.64196e-14 0)
(0.219865 -6.10123e-15 0)
(0.257701 7.21572e-15 0)
(0.295878 1.11935e-14 0)
(0.334328 -6.89671e-15 0)
(0.373007 8.52386e-15 0)
(0.411887 -2.8062e-15 0)
(0.450955 1.42432e-14 0)
(0.490203 8.63633e-15 0)
(0.529632 -3.4352e-15 0)
(0.569246 1.3094e-14 0)
(0.609049 1.02985e-14 0)
(0.649042 1.18056e-14 0)
(0.689212 3.07817e-15 0)
(0.729521 8.86929e-15 0)
(0.769892 1.12674e-14 0)
(0.810122 2.25684e-14 0)
(0.849713 -1.16428e-15 0)
(0.887069 2.47933e-14 0)
(0.917901 1.69022e-14 0)
(0.933723 1.18168e-14 0)
(0.933765 1.08552e-14 0)
(0.925409 7.54091e-15 0)
(0.926709 7.64421e-15 0)
(0.927569 7.47651e-15 0)
(0.927806 3.8712e-15 0)
(0.927986 6.51504e-15 0)
(0.928149 6.84966e-15 0)
(0.92842 3.43386e-16 0)
(0.928505 3.88603e-15 0)
(0.92828 2.60269e-15 0)
(0.92814 4.37216e-15 0)
(0.928138 4.43589e-15 0)
(0.928137 3.95545e-15 0)
(0.928096 1.5856e-15 0)
(0.928073 2.81961e-15 0)
(0.928178 7.50564e-16 0)
(0.928516 4.96762e-15 0)
(0.928808 -2.11692e-15 0)
(0.929593 4.88155e-15 0)
(0.930169 -7.6096e-16 0)
(0.924678 -2.40437e-16 0)
(0.924893 1.4573e-15 0)
(0.927005 1.5569e-15 0)
(0.928184 2.01877e-15 0)
(0.929168 2.72094e-15 0)
(0.929309 1.29002e-15 0)
(0.92857 8.62579e-16 0)
(0.927334 1.55272e-15 0)
(0.926211 9.05262e-16 0)
(0.925564 2.22655e-16 0)
(0.924811 4.91806e-16 0)
(0.921986 8.72441e-16 0)
(0.904442 1.65516e-15 0)
(0.806504 5.77546e-16 0)
(0.458984 -9.39223e-16 0)
(0.0618985 1.59425e-15 0)
(0.00079022 -8.11493e-16 0)
(6.94437e-07 -2.37439e-16 0)
(3.1185e-11 3.56701e-16 0)
(5.08194e-16 -1.19262e-17 0)
(8.36634e-17 -1.0842e-18 0)
(4.80433e-16 0 0)
(6.0241e-16 -1.99492e-16 0)
(3.98174e-16 -3.44775e-16 0)
(-1.14509e-17 -9.54094e-17 0)
(-5.78233e-16 2.27682e-16 0)
(-8.67633e-16 1.94071e-16 0)
(-7.65175e-16 2.95986e-16 0)
(-7.0256e-16 2.15755e-16 0)
(7.80623e-16 4.87889e-16 0)
(5.17555e-16 1.84314e-16 0)
(-4.39065e-17 1.30104e-16 0)
(-3.00639e-16 -2.1684e-16 0)
(-1.34859e-16 2.1684e-18 0)
(2.96471e-16 1.10588e-16 0)
(4.86905e-16 5.48604e-16 0)
(2.16479e-16 8.19654e-16 0)
(1.89499e-17 6.2233e-16 0)
(2.77466e-16 3.36101e-16 0)
(3.74754e-16 1.53956e-16 0)
(7.26108e-17 -1.53956e-16 0)
(-2.35084e-16 -7.80623e-17 0)
(-8.38852e-18 -2.55871e-16 0)
(2.43445e-16 -4.33679e-17 0)
(-8.40832e-17 4.11995e-17 0)
(-3.92001e-16 3.5128e-16 0)
(-5.34651e-16 1.69135e-16 0)
(-2.53489e-16 0 0)
(3.66321e-15 -2.1684e-17 0)
(5.63673e-11 -1.54607e-15 0)
(8.62627e-08 -2.94468e-15 0)
(1.64041e-05 9.30255e-16 0)
(0.000557263 6.00929e-15 0)
(0.00513039 -2.69442e-14 0)
(0.0196065 2.49026e-14 0)
(0.0444366 -1.34626e-14 0)
(0.0755915 1.5905e-14 0)
(0.109857 -9.12786e-15 0)
(0.145703 -2.77353e-15 0)
(0.182475 1.53176e-14 0)
(0.219865 -7.56888e-15 0)
(0.257701 9.72754e-15 0)
(0.295878 1.31205e-14 0)
(0.334328 -5.14896e-15 0)
(0.373007 6.95454e-15 0)
(0.411887 1.99265e-15 0)
(0.450955 1.02536e-14 0)
(0.490203 2.29444e-15 0)
(0.529632 -9.46326e-16 0)
(0.569246 1.00511e-14 0)
(0.609049 7.32274e-15 0)
(0.649042 1.10698e-14 0)
(0.689212 5.832e-15 0)
(0.729521 9.34882e-15 0)
(0.769892 3.57869e-15 0)
(0.810122 2.29648e-14 0)
(0.849713 -7.41654e-15 0)
(0.887069 2.54493e-14 0)
(0.917901 1.56436e-14 0)
(0.933723 1.22205e-14 0)
(0.933765 1.2801e-14 0)
(0.925409 9.97077e-15 0)
(0.926709 1.00867e-14 0)
(0.927569 5.97809e-15 0)
(0.927806 2.67825e-15 0)
(0.927986 7.44203e-15 0)
(0.928149 4.70087e-15 0)
(0.92842 1.54778e-15 0)
(0.928505 6.54919e-15 0)
(0.92828 3.40742e-15 0)
(0.92814 5.51997e-15 0)
(0.928138 2.20966e-15 0)
(0.928137 3.80599e-15 0)
(0.928096 1.23659e-15 0)
(0.928073 2.93396e-15 0)
(0.928178 8.64025e-16 0)
(0.928516 4.33055e-15 0)
(0.928808 -2.42984e-16 0)
(0.929593 3.476e-15 0)
(0.930169 -1.88709e-15 0)
(0.924678 1.20218e-16 0)
(0.924893 3.72696e-15 0)
(0.927005 2.70452e-15 0)
(0.928184 7.63332e-16 0)
(0.929168 3.07491e-15 0)
(0.929309 -7.32905e-17 0)
(0.92857 7.59622e-16 0)
(0.927334 1.05085e-15 0)
(0.926211 -1.48744e-15 0)
(0.925564 -1.81349e-15 0)
(0.924811 -1.1136e-15 0)
(0.921986 -1.95248e-15 0)
(0.904442 -5.90868e-16 0)
(0.806504 -2.32032e-15 0)
(0.458984 -4.44112e-15 0)
(0.0618985 4.33298e-15 0)
(0.00079022 -4.00004e-15 0)
(6.94437e-07 -2.60207e-17 0)
(3.11848e-11 7.78454e-16 0)
(4.86538e-16 2.15755e-16 0)
(1.90151e-17 7.15571e-17 0)
(4.34222e-16 8.56517e-17 0)
(6.00095e-16 -4.01153e-16 0)
(4.14328e-16 -5.91972e-16 0)
(1.36893e-16 -3.14417e-16 0)
(-4.17532e-16 7.58939e-17 0)
(-8.21299e-16 3.98985e-16 0)
(-8.50125e-16 5.43183e-16 0)
(-9.50842e-16 4.597e-16 0)
(1.01481e-15 2.40692e-16 0)
(5.89805e-16 1.04083e-16 0)
(-3.85926e-17 1.34441e-16 0)
(-3.24226e-16 2.64544e-16 0)
(3.1861e-18 1.06251e-16 0)
(4.02576e-16 2.73218e-16 0)
(6.70685e-16 3.66459e-16 0)
(2.90173e-16 4.74879e-16 0)
(-1.65689e-16 4.40184e-16 0)
(3.00817e-16 2.55871e-16 0)
(3.68998e-18 -4.33679e-17 0)
(-1.57217e-16 -2.60208e-16 0)
(-2.21623e-16 -1.73472e-17 0)
(-2.33239e-17 1.06251e-16 0)
(2.58937e-16 3.03576e-17 0)
(1.0557e-16 -1.51788e-16 0)
(-2.2334e-16 1.32272e-16 0)
(-5.96118e-16 2.40692e-16 0)
(-2.88123e-16 9.32411e-17 0)
(3.57481e-15 1.82145e-16 0)
(5.63646e-11 -1.0907e-15 0)
(8.62626e-08 -4.18717e-15 0)
(1.64041e-05 5.94149e-15 0)
(0.000557263 6.39762e-15 0)
(0.00513039 -3.0579e-14 0)
(0.0196065 1.94701e-14 0)
(0.0444366 -5.58118e-15 0)
(0.0755915 9.22499e-15 0)
(0.109857 -7.68217e-15 0)
(0.145703 -9.8265e-18 0)
(0.182475 1.13036e-14 0)
(0.219865 -9.36937e-15 0)
(0.257701 9.48232e-15 0)
(0.295878 1.16209e-14 0)
(0.334328 -4.54269e-15 0)
(0.373007 6.55959e-15 0)
(0.411887 4.80196e-15 0)
(0.450955 8.45792e-15 0)
(0.490203 -5.14203e-15 0)
(0.529632 4.33126e-15 0)
(0.569246 6.58026e-15 0)
(0.609049 3.04577e-15 0)
(0.649042 9.21818e-15 0)
(0.689212 6.45448e-15 0)
(0.729521 9.53415e-15 0)
(0.769892 1.55145e-15 0)
(0.810122 1.91964e-14 0)
(0.849713 -9.66623e-15 0)
(0.887069 2.47469e-14 0)
(0.917901 8.81391e-15 0)
(0.933723 1.3383e-14 0)
(0.933765 1.46128e-14 0)
(0.925409 1.13506e-14 0)
(0.926709 8.82254e-15 0)
(0.927569 7.5573e-15 0)
(0.927806 3.1233e-15 0)
(0.927986 7.63895e-15 0)
(0.928149 1.69524e-15 0)
(0.92842 2.3541e-15 0)
(0.928505 7.16238e-15 0)
(0.92828 5.24097e-15 0)
(0.92814 4.54831e-15 0)
(0.928138 6.34518e-16 0)
(0.928137 3.19758e-15 0)
(0.928096 1.40802e-15 0)
(0.928073 2.52545e-15 0)
(0.928178 9.55138e-16 0)
(0.928516 1.1375e-15 0)
(0.928808 -5.03153e-16 0)
(0.929593 2.77939e-15 0)
(0.930169 -4.47004e-16 0)
(0.924678 -1.79216e-15 0)
(0.924893 3.85738e-15 0)
(0.927005 2.87163e-15 0)
(0.928184 5.89708e-16 0)
(0.929168 2.78866e-15 0)
(0.929309 -4.76645e-17 0)
(0.92857 1.68367e-15 0)
(0.927334 1.70533e-16 0)
(0.926211 -1.64668e-15 0)
(0.925564 -1.36306e-15 0)
(0.924811 -1.18064e-15 0)
(0.921986 -1.97145e-15 0)
(0.904442 -1.70869e-15 0)
(0.806504 -3.12697e-15 0)
(0.458984 -3.17437e-15 0)
(0.0618985 3.00324e-15 0)
(0.00079022 -3.31206e-15 0)
(6.94437e-07 9.81199e-16 0)
(3.11842e-11 6.59193e-16 0)
(5.09832e-16 4.34764e-16 0)
(-6.08083e-17 2.26597e-16 0)
(1.84144e-16 1.10588e-16 0)
(3.23807e-16 -1.86482e-16 0)
(5.35174e-16 -3.62122e-16 0)
(2.65914e-16 -2.14671e-16 0)
(-2.58024e-16 -1.23599e-16 0)
(-6.44719e-16 2.21176e-16 0)
(-9.13404e-16 3.39354e-16 0)
(-1.13624e-15 3.28512e-16 0)
(7.9797e-16 -2.1684e-18 0)
(4.71919e-16 2.55871e-16 0)
(3.3682e-17 3.12249e-16 0)
(-6.53818e-18 5.76793e-16 0)
(1.94696e-16 3.83806e-16 0)
(4.00439e-16 5.5511e-16 0)
(4.17241e-16 3.77301e-16 0)
(1.70675e-16 1.30104e-16 0)
(8.64682e-17 1.97324e-16 0)
(-9.42207e-17 -1.34441e-16 0)
(-3.24623e-16 -3.83806e-16 0)
(-6.78319e-17 -1.30104e-16 0)
(-2.29349e-16 2.21176e-16 0)
(1.6729e-17 4.77047e-16 0)
(2.3704e-16 2.64544e-16 0)
(8.60353e-17 3.03576e-17 0)
(-1.25267e-16 1.34441e-16 0)
(-4.1052e-16 4.20669e-16 0)
(-1.46514e-16 2.92734e-16 0)
(3.7672e-15 4.48858e-16 0)
(5.63646e-11 1.06685e-15 0)
(8.62626e-08 -1.0842e-16 0)
(1.64041e-05 1.39647e-15 0)
(0.000557263 8.81869e-15 0)
(0.00513039 -1.68804e-14 0)
(0.0196065 9.24231e-15 0)
(0.0444366 2.91388e-15 0)
(0.0755915 1.37138e-15 0)
(0.109857 -1.27064e-15 0)
(0.145703 2.64333e-15 0)
(0.182475 6.84712e-15 0)
(0.219865 -9.08501e-15 0)
(0.257701 7.51784e-15 0)
(0.295878 1.07156e-14 0)
(0.334328 -2.15531e-15 0)
(0.373007 3.91503e-15 0)
(0.411887 6.57528e-15 0)
(0.450955 7.85183e-15 0)
(0.490203 -7.99797e-15 0)
(0.529632 9.56725e-15 0)
(0.569246 4.50314e-15 0)
(0.609049 -3.17365e-17 0)
(0.649042 7.01567e-15 0)
(0.689212 4.89928e-15 0)
(0.729521 9.92992e-15 0)
(0.769892 2.74689e-15 0)
(0.810122 1.38971e-14 0)
(0.849713 -1.37065e-14 0)
(0.887069 2.44524e-14 0)
(0.917901 8.67281e-15 0)
(0.933723 1.16847e-14 0)
(0.933765 1.20943e-14 0)
(0.925409 9.85526e-15 0)
(0.926709 6.85707e-15 0)
(0.927569 6.1438e-15 0)
(0.927806 3.33358e-15 0)
(0.927986 5.08351e-15 0)
(0.928149 4.42098e-17 0)
(0.92842 7.25117e-15 0)
(0.928505 3.4391e-15 0)
(0.92828 5.18694e-15 0)
(0.92814 1.66035e-15 0)
(0.928138 2.86903e-15 0)
(0.928137 1.86619e-15 0)
(0.928096 3.89122e-16 0)
(0.928073 6.98374e-16 0)
(0.928178 2.61167e-15 0)
(0.928516 1.02283e-15 0)
(0.928808 4.14432e-16 0)
(0.929593 4.0317e-15 0)
(0.930169 2.6246e-15 0)
(0.924678 1.4901e-15 0)
(0.924893 2.32408e-15 0)
(0.927005 2.5004e-15 0)
(0.928184 2.18829e-15 0)
(0.929168 3.17699e-15 0)
(0.929309 3.08948e-15 0)
(0.92857 3.41651e-15 0)
(0.927334 -4.69605e-16 0)
(0.926211 1.34151e-15 0)
(0.925564 1.03087e-15 0)
(0.924811 -1.75024e-16 0)
(0.921986 8.27333e-16 0)
(0.904442 -5.00965e-16 0)
(0.806504 -1.89645e-15 0)
(0.458984 -1.60102e-15 0)
(0.0618985 -2.33116e-15 0)
(0.00079022 1.29904e-15 0)
(6.94437e-07 4.94394e-16 0)
(3.11846e-11 -4.23922e-16 0)
(4.98148e-16 2.6346e-16 0)
(-1.25778e-16 1.48535e-16 0)
(4.37508e-17 2.88397e-16 0)
(2.10262e-16 3.03576e-16 0)
(3.32944e-16 1.16009e-16 0)
(7.06603e-17 -1.52872e-16 0)
(-3.24687e-16 -2.95986e-16 0)
(-6.14291e-16 -3.25259e-18 0)
(-8.3452e-16 8.99885e-17 0)
(-1.03758e-15 2.22261e-16 0)
(9.97462e-16 -2.1684e-16 0)
(5.85293e-16 -9.97462e-17 0)
(6.46121e-17 -4.55363e-17 0)
(-3.90346e-17 2.60208e-16 0)
(3.04e-16 2.01661e-16 0)
(6.27932e-16 2.60208e-16 0)
(3.02115e-16 -6.50519e-17 0)
(1.25834e-16 -3.96817e-16 0)
(-1.75091e-16 -2.73218e-16 0)
(-4.23009e-16 -5.20415e-16 0)
(-8.03026e-17 -1.79977e-16 0)
(1.87586e-16 1.30104e-16 0)
(-4.57405e-17 3.25259e-17 0)
(-2.14414e-16 2.51534e-16 0)
(-4.04182e-17 -4.33679e-18 0)
(2.70004e-16 -8.45675e-17 0)
(1.5889e-16 -1.64798e-16 0)
(-8.20828e-17 2.38524e-17 0)
(-1.56581e-16 4.33679e-18 0)
(3.97266e-15 6.72203e-17 0)
(5.63667e-11 1.37693e-15 0)
(8.62626e-08 3.47377e-15 0)
(1.64041e-05 -3.1594e-15 0)
(0.000557263 6.12427e-15 0)
(0.00513039 -7.84674e-15 0)
(0.0196065 2.229e-15 0)
(0.0444366 5.3819e-15 0)
(0.0755915 -4.89579e-15 0)
(0.109857 5.77681e-15 0)