/*--------------------------------*- C++ -*----------------------------------*\
| =========                 |                                                 |
| \\      /  F ield         | OpenFOAM: The Open Source CFD Toolbox           |
|  \\    /   O peration     | Version:  4.1                                   |
|   \\  /    A nd           | Web:      www.OpenFOAM.org                      |
|    \\/     M anipulation  |                                                 |
\*---------------------------------------------------------------------------*/
FoamFile
{
    version     2.0;
    format      ascii;
    class       volVectorField;
    location    "0.26";
    object      U;
}
// * * * * * * * * * * * * * * * * * * * * * * * * * * * * * * * * * * * * * //

dimensions      [0 1 -1 0 0 0 0];

internalField   nonuniform List<vector> 
10000
(
(0 0 0)
(1.1964e-16 0 0)
(2.81988e-16 0 0)
(8.79848e-17 1.47451e-16 0)
(-1.18067e-16 0 0)
(-2.39469e-16 0 0)
(-2.23737e-16 0 0)
(-3.1856e-17 0 0)
(-3.38195e-24 0 0)
(1.89817e-16 1.40946e-16 0)
(4.33232e-16 0 0)
(1.11662e-16 -1.53956e-16 0)
(-2.58501e-16 0 0)
(1.58308e-17 0 0)
(1.56587e-16 0 0)
(-4.0842e-17 1.30104e-16 0)
(-2.40707e-16 0 0)
(-1.11097e-16 0 0)
(-1.89388e-17 0 0)
(-1.42961e-16 0 0)
(2.12651e-19 0 0)
(9.2364e-17 1.14925e-16 0)
(2.42899e-17 0 0)
(1.02231e-16 0 0)
(-8.58891e-17 0 0)
(-2.55891e-16 -6.50519e-18 0)
(-4.06428e-16 -2.51534e-16 0)
(-7.61857e-17 1.58293e-16 0)
(9.81852e-13 8.89043e-17 0)
(4.91457e-09 1.47885e-15 0)
(2.55548e-06 1.76725e-15 0)
(0.000193496 -1.59403e-15 0)
(0.00317396 4.88985e-15 0)
(0.0174778 2.83022e-15 0)
(0.0486165 7.76415e-15 0)
(0.0922465 4.8482e-15 0)
(0.142375 -9.81413e-15 0)
(0.195712 6.02186e-15 0)
(0.250832 -2.85532e-15 0)
(0.3071 2.14651e-14 0)
(0.364199 3.81692e-14 0)
(0.421968 3.34379e-14 0)
(0.48034 1.20438e-14 0)
(0.539304 1.2672e-14 0)
(0.598885 1.54783e-14 0)
(0.659079 2.6743e-14 0)
(0.719823 1.56106e-14 0)
(0.78057 -1.03587e-14 0)
(0.840036 -2.53581e-14 0)
(0.893947 3.43562e-15 0)
(0.931043 8.92381e-15 0)
(0.939625 1.08475e-14 0)
(0.924455 1.16598e-14 0)
(0.926001 1.01814e-14 0)
(0.927304 6.99126e-15 0)
(0.927588 5.39556e-15 0)
(0.92766 4.20595e-15 0)
(0.927592 2.20821e-15 0)
(0.927736 3.77404e-15 0)
(0.928053 6.44955e-15 0)
(0.92839 7.2729e-15 0)
(0.928882 6.38336e-15 0)
(0.929729 1.53927e-15 0)
(0.93206 7.61091e-15 0)
(0.929197 -1.2028e-15 0)
(0.923131 -1.56538e-15 0)
(0.924361 -5.67652e-16 0)
(0.925895 -1.8156e-15 0)
(0.929291 -3.1333e-15 0)
(0.931363 -5.27479e-15 0)
(0.928112 -6.44673e-15 0)
(0.899173 -6.74372e-15 0)
(0.740399 -5.75587e-15 0)
(0.304313 -1.16463e-15 0)
(0.0196955 4.05107e-17 0)
(0.000104495 3.1764e-16 0)
(3.35221e-08 5.96309e-17 0)
(9.77391e-13 0 0)
(-1.07769e-16 1.47451e-16 0)
(5.35308e-17 0 0)
(2.49939e-16 0 0)
(5.16278e-17 0 0)
(-1.42347e-16 0 0)
(6.15789e-17 0 0)
(2.62932e-16 9.97462e-17 0)
(8.15149e-17 0 0)
(-1.71259e-16 0 0)
(-6.86584e-17 0 0)
(-6.45345e-17 0 0)
(-1.70412e-16 0 0)
(-2.43195e-16 -6.50519e-18 0)
(-3.93748e-16 0 0)
(-1.89757e-16 6.72203e-17 0)
(6.10427e-17 0 0)
(2.71571e-16 0 0)
(4.65733e-17 0 0)
(-1.96674e-16 1.22514e-16 0)
(-2.39955e-16 6.17993e-17 0)
(-1.4267e-16 0 0)
(-4.33679e-18 7.48097e-17 0)
(0 0 0)
(1.6146e-16 0 0)
(2.92587e-16 1.38777e-16 0)
(9.6174e-17 3.31765e-16 0)
(-1.27704e-16 1.25767e-16 0)
(-3.06924e-16 2.47197e-16 0)
(-2.77203e-16 4.98731e-17 0)
(-3.21906e-17 0 0)
(-7.22333e-22 0 0)
(2.11518e-16 0 0)
(5.03345e-16 0 0)
(1.45616e-16 0 0)
(-2.11115e-16 0 0)
(4.39987e-17 0 0)
(1.58034e-16 1.30104e-16 0)
(-4.58107e-17 3.14417e-16 0)
(-2.49513e-16 1.27935e-16 0)
(-1.433e-16 0 0)
(-4.1839e-17 0 0)
(-2.06996e-16 0 0)
(-4.20363e-19 0 0)
(1.31536e-16 2.1684e-18 0)
(4.41441e-17 0 0)
(1.17723e-16 1.58293e-16 0)
(-1.30664e-16 3.5128e-16 0)
(-3.60898e-16 1.53956e-16 0)
(-3.31415e-16 1.0842e-16 0)
(2.70176e-17 3.42607e-16 0)
(9.81658e-13 -3.03576e-17 0)
(4.91457e-09 1.01915e-16 0)
(2.55548e-06 4.24139e-15 0)
(0.000193496 -1.97573e-15 0)
(0.00317396 8.85565e-15 0)
(0.0174778 3.6291e-15 0)
(0.0486165 6.78106e-15 0)
(0.0922465 -2.90211e-15 0)
(0.142375 6.78611e-15 0)
(0.195712 9.52745e-15 0)
(0.250832 -5.27022e-15 0)
(0.3071 2.87877e-14 0)
(0.364199 5.09489e-15 0)
(0.421968 8.95655e-15 0)
(0.48034 2.99098e-14 0)
(0.539304 1.72097e-14 0)
(0.598885 1.0625e-14 0)
(0.659079 1.02876e-14 0)
(0.719823 1.88127e-14 0)
(0.78057 4.10846e-15 0)
(0.840036 -2.46548e-15 0)
(0.893947 4.8453e-15 0)
(0.931043 1.13487e-14 0)
(0.939625 9.29545e-15 0)
(0.924455 7.41816e-15 0)
(0.926001 9.63505e-15 0)
(0.927304 6.52437e-15 0)
(0.927588 4.52649e-15 0)
(0.92766 2.18758e-15 0)
(0.927592 3.0781e-17 0)
(0.927736 2.30797e-15 0)
(0.928053 4.97532e-15 0)
(0.92839 7.33862e-15 0)
(0.928882 8.07511e-15 0)
(0.929729 4.89543e-15 0)
(0.93206 8.88242e-15 0)
(0.929197 3.6373e-15 0)
(0.923131 6.32311e-16 0)
(0.924361 7.48104e-16 0)
(0.925895 -7.54998e-16 0)
(0.929291 -1.72663e-15 0)
(0.931363 -3.94444e-16 0)
(0.928112 -2.80128e-15 0)
(0.899173 -3.11462e-15 0)
(0.740399 -4.82902e-15 0)
(0.304313 -1.36383e-15 0)
(0.0196955 -6.48171e-16 0)
(0.000104495 2.0446e-15 0)
(3.35221e-08 2.8406e-16 0)
(9.77367e-13 5.42099e-17 0)
(-1.61609e-16 2.61292e-16 0)
(3.65029e-18 8.56517e-17 0)
(2.06774e-16 3.68627e-17 0)
(4.52319e-17 1.51788e-17 0)
(-1.33816e-16 8.67359e-17 0)
(6.84791e-17 1.56125e-16 0)
(2.73388e-16 2.02745e-16 0)
(8.9895e-17 2.1684e-17 0)
(-1.76555e-16 0 0)
(-8.81432e-17 0 0)
(-9.94782e-17 0 0)
(-2.10558e-16 4.33679e-18 0)
(-1.48927e-16 1.0842e-18 0)
(-2.61741e-16 1.48535e-16 0)
(-1.44666e-16 2.68881e-16 0)
(3.83732e-17 8.56517e-17 0)
(2.48949e-16 0 0)
(2.68131e-17 1.95156e-17 0)
(-2.13612e-16 2.40692e-16 0)
(-3.1645e-16 2.6346e-16 0)
(-2.29592e-16 1.84314e-16 0)
(-2.05998e-16 2.78639e-16 0)
(0 0 0)
(2.36122e-16 0 0)
(5.25113e-16 0 0)
(1.14354e-16 9.97462e-17 0)
(-3.62808e-16 3.44775e-16 0)
(-3.25196e-16 5.70288e-16 0)
(-2.99101e-16 2.4286e-16 0)
(-2.83659e-17 0 0)
(-5.42876e-20 0 0)
(2.46911e-16 0 0)
(5.68202e-16 0 0)
(2.10735e-16 2.1684e-18 0)
(-1.42084e-16 4.11995e-17 0)
(8.26903e-17 2.62376e-16 0)
(3.18147e-16 1.2143e-16 0)
(-5.31312e-17 7.58939e-17 0)
(-4.1419e-16 0 0)
(-1.70086e-16 0 0)
(-8.21822e-17 1.01915e-16 0)
(-2.53809e-16 0 0)
(-1.095e-18 0 0)
(2.17258e-16 0 0)
(7.93369e-17 1.04083e-16 0)
(1.68645e-16 4.38016e-16 0)
(-9.75951e-17 7.06897e-16 0)
(-3.92429e-16 4.11995e-16 0)
(-4.17744e-16 8.02307e-17 0)
(-1.25943e-16 1.10588e-16 0)
(9.81286e-13 -1.56125e-16 0)
(4.91457e-09 -1.71954e-15 0)
(2.55548e-06 7.76504e-15 0)
(0.000193496 -2.40081e-15 0)
(0.00317396 9.00567e-15 0)
(0.0174778 6.87527e-15 0)
(0.0486165 8.6139e-15 0)
(0.0922465 -1.24812e-15 0)
(0.142375 9.13429e-15 0)
(0.195712 1.08183e-14 0)
(0.250832 -8.66428e-15 0)
(0.3071 3.14296e-14 0)
(0.364199 -2.96544e-15 0)
(0.421968 -1.25775e-15 0)
(0.48034 3.19091e-14 0)
(0.539304 1.53362e-14 0)
(0.598885 9.10741e-15 0)
(0.659079 5.43457e-15 0)
(0.719823 1.8767e-14 0)
(0.78057 4.96471e-15 0)
(0.840036 3.73671e-15 0)
(0.893947 7.95125e-15 0)
(0.931043 6.88676e-15 0)
(0.939625 8.03748e-15 0)
(0.924455 8.23375e-15 0)
(0.926001 1.00854e-14 0)
(0.927304 6.05082e-15 0)
(0.927588 3.8843e-15 0)
(0.92766 6.87343e-16 0)
(0.927592 -5.0981e-17 0)
(0.927736 4.12659e-16 0)
(0.928053 2.2232e-15 0)
(0.92839 5.01552e-15 0)
(0.928882 6.45658e-15 0)
(0.929729 6.32466e-15 0)
(0.93206 1.02192e-14 0)
(0.929197 6.94077e-15 0)
(0.923131 6.05674e-15 0)
(0.924361 3.28578e-15 0)
(0.925895 4.50422e-16 0)
(0.929291 -6.69697e-16 0)
(0.931363 1.88821e-15 0)
(0.928112 -1.16318e-15 0)
(0.899173 1.16307e-16 0)
(0.740399 -2.9247e-16 0)
(0.304313 -5.8825e-16 0)
(0.0196955 1.0714e-15 0)
(0.000104495 3.29457e-15 0)
(3.35221e-08 3.97901e-16 0)
(9.77464e-13 2.22261e-16 0)
(-2.75016e-16 2.22261e-16 0)
(-8.8298e-17 3.22007e-16 0)
(1.60031e-16 3.1767e-16 0)
(1.76086e-16 2.40692e-16 0)
(7.27274e-17 3.65375e-16 0)
(1.80167e-16 3.53449e-16 0)
(1.59328e-16 1.33356e-16 0)
(-1.38777e-17 -7.58939e-17 0)
(-1.52132e-16 6.50519e-18 0)
(-9.71011e-17 1.19262e-16 0)
(-1.54775e-16 1.73472e-17 0)
(-2.55948e-16 1.20346e-16 0)
(-1.20106e-16 1.25767e-16 0)
(-8.19514e-17 3.3068e-16 0)
(-1.43182e-16 4.71626e-16 0)
(-1.35979e-17 3.81638e-16 0)
(1.63019e-16 2.03829e-16 0)
(5.14677e-17 7.26413e-17 0)
(-1.6967e-16 2.6346e-16 0)
(-3.75716e-16 4.68374e-16 0)
(-3.11746e-16 3.82722e-16 0)
(-4.1308e-16 4.85721e-16 0)
(-2.1684e-18 -2.1684e-18 0)
(2.80426e-16 -2.1684e-18 0)
(6.14521e-16 -2.1684e-18 0)
(2.15546e-16 3.90311e-17 0)
(-2.79297e-16 2.86228e-16 0)
(-6.59283e-16 1.90819e-16 0)
(-3.43122e-16 -2.1684e-18 0)
(-2.01201e-17 -2.1684e-18 0)
(-1.2774e-18 0 0)
(1.21643e-16 0 0)
(3.87842e-16 -4.33679e-18 0)
(2.05941e-16 -1.45283e-16 0)
(1.80967e-16 2.19008e-16 0)
(1.97443e-16 5.78962e-16 0)
(2.54527e-16 3.01407e-16 0)
(-5.39828e-17 0 0)
(-3.41489e-16 -2.1684e-18 0)
(-9.44857e-17 1.17093e-16 0)
(-9.41697e-17 3.5128e-16 0)
(-2.30857e-16 1.73472e-16 0)
(4.7507e-18 0 0)
(2.39519e-16 1.77809e-16 0)
(9.70221e-17 3.57785e-16 0)
(2.78664e-16 1.7564e-16 0)
(-8.49438e-17 2.68881e-16 0)
(-5.0299e-16 1.36609e-16 0)
(-5.39647e-16 -4.33679e-18 0)
(-8.47794e-17 0 0)
(9.81549e-13 6.8955e-16 0)
(4.91456e-09 -7.24244e-16 0)
(2.55548e-06 4.98515e-15 0)
(0.000193496 2.07333e-15 0)
(0.00317396 1.93507e-15 0)
(0.0174778 9.28953e-15 0)
(0.0486165 4.84313e-15 0)
(0.0922465 1.68215e-15 0)
(0.142375 8.1421e-15 0)
(0.195712 1.59086e-14 0)
(0.250832 -1.17715e-14 0)
(0.3071 2.98099e-14 0)
(0.364199 -3.0161e-15 0)
(0.421968 -6.22593e-15 0)
(0.48034 3.14122e-14 0)
(0.539304 1.46137e-14 0)
(0.598885 6.78894e-15 0)
(0.659079 5.06058e-15 0)
(0.719823 1.45274e-14 0)
(0.78057 5.11329e-15 0)
(0.840036 4.44813e-15 0)
(0.893947 4.59805e-15 0)
(0.931043 2.24565e-15 0)
(0.939625 9.1423e-15 0)
(0.924455 1.11776e-14 0)
(0.926001 7.55091e-15 0)
(0.927304 5.42365e-15 0)
(0.927588 2.59483e-15 0)
(0.92766 1.30841e-15 0)
(0.927592 5.98946e-16 0)
(0.927736 -1.20159e-15 0)
(0.928053 1.4178e-15 0)
(0.92839 3.12218e-15 0)
(0.928882 4.56766e-15 0)
(0.929729 7.53847e-15 0)
(0.93206 1.03121e-14 0)
(0.929197 4.65874e-15 0)
(0.923131 4.48931e-15 0)
(0.924361 3.74413e-15 0)
(0.925895 2.20985e-15 0)
(0.929291 1.60131e-15 0)
(0.931363 1.28425e-15 0)
(0.928112 1.67195e-16 0)
(0.899173 1.30924e-15 0)
(0.740399 1.75363e-15 0)
(0.304313 -7.64556e-16 0)
(0.0196955 5.54784e-15 0)
(0.000104495 7.40437e-16 0)
(3.35221e-08 1.12865e-15 0)
(9.77262e-13 4.19585e-16 0)
(-1.75599e-16 3.90311e-16 0)
(-2.4497e-17 5.70288e-16 0)
(1.92015e-16 6.19077e-16 0)
(3.47278e-16 4.65121e-16 0)
(2.68488e-16 5.8872e-16 0)
(3.35698e-17 4.79216e-16 0)
(-1.46068e-16 2.64544e-16 0)
(-2.81323e-17 1.40946e-16 0)
(1.5615e-17 1.76724e-16 0)
(-1.47545e-16 1.85398e-16 0)
(-2.55894e-16 3.36101e-17 0)
(-1.53714e-16 1.34441e-16 0)
(-5.13107e-17 3.25259e-17 0)
(3.77212e-17 1.71303e-16 0)
(-1.61667e-16 3.70796e-16 0)
(-1.91829e-16 5.8113e-16 0)
(-5.25545e-17 4.52111e-16 0)
(-1.32281e-16 2.69965e-16 0)
(-5.73459e-17 1.52872e-16 0)
(-2.27561e-16 2.74302e-16 0)
(-4.44726e-16 2.05998e-16 0)
(-6.41845e-16 2.58039e-16 0)
(-2.1684e-18 2.1684e-18 0)
(2.69598e-16 2.1684e-18 0)
(6.02078e-16 2.1684e-18 0)
(1.88622e-16 1.66967e-16 0)
(-5.4629e-16 -1.53956e-16 0)
(-6.17961e-16 -5.46436e-16 0)
(-2.84716e-16 -2.40692e-16 0)
(-6.69459e-18 2.1684e-18 0)
(-1.08512e-17 0 0)
(1.42777e-16 -2.1684e-18 0)
(4.06217e-16 3.90311e-17 0)
(2.26296e-16 1.84314e-16 0)
(4.06847e-16 4.55363e-17 0)
(2.2527e-16 2.23345e-16 0)
(2.72523e-16 4.33679e-17 0)
(-5.53837e-17 9.32411e-17 0)
(-3.85482e-16 2.1684e-18 0)
(-1.12583e-16 2.1684e-18 0)
(-1.0116e-16 -1.51788e-17 0)
(-2.81298e-16 0 0)
(5.38819e-17 0 0)
(3.30733e-16 2.60208e-16 0)
(7.04985e-17 3.46943e-17 0)
(-2.14522e-17 -8.89043e-17 0)
(-8.59352e-18 -3.55617e-16 0)
(-2.19791e-16 -1.43114e-16 0)
(-2.77495e-16 -1.19262e-16 0)
(1.04826e-16 0 0)
(9.83369e-13 1.41163e-15 0)
(4.91456e-09 -2.70182e-15 0)
(2.55548e-06 -3.10081e-15 0)
(0.000193496 5.67996e-15 0)
(0.00317396 -3.6201e-15 0)
(0.0174778 8.16053e-15 0)
(0.0486165 -2.50857e-16 0)
(0.0922465 4.66403e-15 0)
(0.142375 2.54173e-15 0)
(0.195712 1.94245e-14 0)
(0.250832 -1.34564e-14 0)
(0.3071 2.54535e-14 0)
(0.364199 1.7286e-15 0)
(0.421968 -1.00651e-14 0)
(0.48034 2.81672e-14 0)
(0.539304 1.18463e-14 0)
(0.598885 4.66838e-15 0)
(0.659079 4.19414e-15 0)
(0.719823 9.10802e-15 0)
(0.78057 3.9962e-15 0)
(0.840036 2.70573e-15 0)
(0.893947 4.5021e-15 0)
(0.931043 2.12969e-15 0)
(0.939625 3.5281e-15 0)
(0.924455 6.1856e-15 0)
(0.926001 2.0103e-15 0)
(0.927304 3.71606e-15 0)
(0.927588 2.5389e-15 0)
(0.92766 9.11359e-16 0)
(0.927592 9.35934e-16 0)
(0.927736 -3.02443e-15 0)
(0.928053 -9.41638e-16 0)
(0.92839 1.96959e-15 0)
(0.928882 2.47814e-15 0)
(0.929729 8.84242e-15 0)
(0.93206 4.70125e-15 0)
(0.929197 3.06281e-15 0)
(0.923131 8.11432e-16 0)
(0.924361 3.9947e-15 0)
(0.925895 3.7621e-15 0)
(0.929291 1.69735e-15 0)
(0.931363 2.22784e-15 0)
(0.928112 -2.38996e-16 0)
(0.899173 1.95312e-15 0)
(0.740399 8.24991e-16 0)
(0.304313 -9.72224e-16 0)
(0.0196955 1.02407e-14 0)
(0.000104495 -2.91513e-15 0)
(3.35221e-08 2.48065e-15 0)
(9.77339e-13 1.34441e-16 0)
(1.05135e-17 4.27174e-16 0)
(1.18259e-16 5.75709e-16 0)
(9.95931e-17 6.99308e-16 0)
(2.17352e-16 5.87635e-16 0)
(7.2029e-17 3.9248e-16 0)
(-1.27437e-16 2.89481e-16 0)
(-1.50787e-16 3.87059e-16 0)
(-3.09736e-17 3.88143e-16 0)
(-1.22643e-17 3.61038e-16 0)
(-3.41713e-16 2.15755e-16 0)
(-4.89648e-16 1.72388e-16 0)
(-3.23898e-16 -3.57785e-17 0)
(-1.11086e-17 -1.36609e-16 0)
(2.24029e-16 -1.18178e-16 0)
(8.22521e-17 1.51788e-17 0)
(4.50349e-17 3.67543e-16 0)
(3.73772e-17 6.12572e-16 0)
(-1.78553e-16 4.803e-16 0)
(-2.80647e-16 1.06251e-16 0)
(-3.99015e-16 -1.35525e-16 0)
(-5.8115e-16 -7.69781e-17 0)
(-7.4376e-16 -1.94071e-16 0)
(0 0 0)
(1.28614e-16 0 0)
(2.9274e-16 -1.2143e-16 0)
(-9.97221e-17 -3.85975e-16 0)
(-6.30971e-16 -5.59446e-16 0)
(-3.16877e-16 -2.4286e-16 0)
(-8.49632e-17 -2.1684e-17 0)
(2.48886e-17 0 0)
(-3.72158e-17 0 0)
(1.5991e-16 6.50519e-18 0)
(4.15971e-16 2.62376e-16 0)
(2.25906e-16 4.42353e-16 0)
(-2.65935e-17 1.8865e-16 0)
(8.64369e-17 -1.17093e-16 0)
(3.04191e-16 -6.50519e-17 0)
(-5.35322e-17 -9.54094e-17 0)
(-4.04151e-16 0 0)
(-1.45196e-16 -9.97462e-17 0)
(-2.24448e-17 -3.77301e-16 0)
(-3.0047e-17 -1.36609e-16 0)
(2.25402e-16 0 0)
(5.65521e-17 1.73472e-17 0)
(-1.84443e-16 -2.25513e-16 0)
(-1.86464e-17 -4.33679e-17 0)
(7.05133e-19 -1.14925e-16 0)
(-7.49356e-18 0 0)
(-3.69419e-17 1.23599e-16 0)
(8.09568e-17 0 0)
(9.84139e-13 3.29596e-16 0)
(4.91456e-09 2.45029e-16 0)
(2.55548e-06 -8.7148e-15 0)
(0.000193496 3.91026e-15 0)
(0.00317396 -3.85926e-15 0)
(0.0174778 5.60981e-15 0)
(0.0486165 -5.14823e-15 0)
(0.0922465 7.46291e-15 0)
(0.142375 -1.58261e-15 0)
(0.195712 1.77653e-14 0)
(0.250832 -1.37311e-14 0)
(0.3071 2.02744e-14 0)
(0.364199 3.87444e-15 0)
(0.421968 -1.21143e-14 0)
(0.48034 2.10248e-14 0)
(0.539304 9.16112e-15 0)
(0.598885 2.49603e-15 0)
(0.659079 9.48675e-16 0)
(0.719823 7.05877e-15 0)
(0.78057 4.32087e-15 0)
(0.840036 2.92266e-15 0)
(0.893947 5.63993e-15 0)
(0.931043 1.57483e-15 0)
(0.939625 1.63471e-15 0)
(0.924455 9.19434e-16 0)
(0.926001 6.77601e-16 0)
(0.927304 2.31159e-15 0)
(0.927588 9.60588e-16 0)
(0.92766 -1.65001e-15 0)
(0.927592 -4.79991e-16 0)
(0.927736 -6.4534e-15 0)
(0.928053 -3.01591e-15 0)
(0.92839 6.01244e-16 0)
(0.928882 1.38437e-16 0)
(0.929729 6.53966e-15 0)
(0.93206 5.70923e-16 0)
(0.929197 2.85952e-15 0)
(0.923131 -1.6244e-15 0)
(0.924361 2.72174e-15 0)
(0.925895 2.07483e-15 0)
(0.929291 -1.34966e-15 0)
(0.931363 2.01269e-15 0)
(0.928112 3.21055e-16 0)
(0.899173 2.17945e-15 0)
(0.740399 1.09483e-15 0)
(0.304313 -3.10484e-15 0)
(0.0196955 8.66503e-15 0)
(0.000104495 -2.32105e-15 0)
(3.35221e-08 1.42355e-15 0)
(9.77754e-13 -2.49366e-17 0)
(9.77701e-17 1.86482e-16 0)
(1.67203e-16 3.12249e-16 0)
(5.04524e-17 4.35848e-16 0)
(1.33195e-17 3.83806e-16 0)
(-5.0719e-17 1.53956e-16 0)
(-1.69474e-16 4.44521e-17 0)
(1.83865e-17 2.15755e-16 0)
(1.35912e-16 4.21753e-16 0)
(-4.92527e-17 1.9624e-16 0)
(-4.29823e-16 5.09573e-17 0)
(-6.76404e-16 8.89043e-17 0)
(-5.02567e-16 -8.78201e-17 0)
(-1.61869e-16 4.33679e-18 0)
(8.43932e-17 -2.56955e-16 0)
(3.39269e-16 -2.12503e-16 0)
(3.41691e-16 7.15571e-17 0)
(1.02915e-16 3.66459e-16 0)
(-2.57475e-16 2.7105e-16 0)
(-5.15779e-16 -8.02307e-17 0)
(-5.35038e-16 -3.08997e-16 0)
(-4.33482e-16 -2.5045e-16 0)
(-5.17163e-16 -3.53449e-16 0)
(0 0 0)
(1.33778e-16 -6.50519e-17 0)
(-1.48153e-17 -4.29343e-16 0)
(-7.55707e-17 -8.00138e-16 0)
(-2.82472e-16 -4.96563e-16 0)
(-1.01041e-16 -8.02307e-17 0)
(1.333e-16 0 0)
(8.37255e-17 0 0)
(-5.86396e-17 0 0)
(1.51506e-16 0 0)
(4.12682e-16 4.33679e-17 0)
(1.01533e-17 1.99492e-16 0)
(-3.34692e-16 0 0)
(-4.61787e-17 -5.20415e-17 0)
(2.01117e-16 0 0)
(2.65052e-17 -9.32411e-17 0)
(-2.35644e-16 0 0)
(-1.74845e-16 0 0)
(-3.15758e-17 -1.17093e-16 0)
(4.42488e-18 0 0)
(2.14491e-16 0 0)
(1.48373e-18 -9.32411e-17 0)
(-1.70634e-16 -4.55363e-17 0)
(-2.03613e-17 0 0)
(-5.80946e-20 0 0)
(-1.96411e-17 0 0)
(-8.66954e-18 0 0)
(8.41351e-17 0 0)
(9.84494e-13 1.10588e-16 0)
(4.91456e-09 2.55003e-15 0)
(2.55548e-06 -6.5399e-15 0)
(0.000193496 2.66756e-15 0)
(0.00317396 -1.51327e-15 0)
(0.0174778 5.16966e-15 0)
(0.0486165 -7.476e-15 0)
(0.0922465 1.13715e-14 0)
(0.142375 -3.79483e-15 0)
(0.195712 1.35617e-14 0)
(0.250832 -1.18172e-14 0)
(0.3071 1.39118e-14 0)
(0.364199 2.76427e-15 0)
(0.421968 -9.46687e-15 0)
(0.48034 1.31138e-14 0)
(0.539304 6.88702e-15 0)
(0.598885 1.06444e-15 0)
(0.659079 4.1119e-16 0)
(0.719823 8.18664e-15 0)
(0.78057 1.58373e-15 0)
(0.840036 2.54595e-15 0)
(0.893947 2.35561e-15 0)
(0.931043 3.94601e-15 0)
(0.939625 3.51234e-15 0)
(0.924455 1.74452e-16 0)
(0.926001 1.83821e-15 0)
(0.927304 2.70008e-15 0)
(0.927588 -3.38097e-16 0)
(0.92766 -1.27718e-15 0)
(0.927592 -1.31749e-15 0)
(0.927736 -3.49525e-15 0)
(0.928053 -2.11134e-15 0)
(0.92839 -5.38695e-16 0)
(0.928882 -1.80655e-15 0)
(0.929729 1.78474e-15 0)
(0.93206 5.85383e-16 0)
(0.929197 2.2621e-16 0)
(0.923131 -5.02462e-16 0)
(0.924361 1.38742e-15 0)
(0.925895 6.37496e-16 0)
(0.929291 -7.61626e-16 0)
(0.931363 4.85114e-16 0)
(0.928112 6.83138e-16 0)
(0.899173 1.54395e-15 0)
(0.740399 1.53978e-15 0)
(0.304313 -1.98768e-15 0)
(0.0196955 2.02873e-15 0)
(0.000104495 -4.37975e-16 0)
(3.35221e-08 8.99885e-17 0)
(9.77529e-13 -2.7105e-17 0)
(2.37007e-16 2.1684e-18 0)
(2.18911e-16 0 0)
(9.02039e-17 0 0)
(2.2269e-18 0 0)
(-8.74382e-18 0 0)
(-1.22289e-16 0 0)
(7.139e-17 4.44521e-17 0)
(2.15296e-16 2.17924e-16 0)
(8.70649e-18 1.30104e-17 0)
(-3.91996e-16 0 0)
(-6.51119e-16 0 0)
(-4.62959e-16 0 0)
(-2.88178e-16 -1.6263e-17 0)
(4.55134e-17 -9.97462e-17 0)
(3.68537e-16 -9.8662e-17 0)
(4.33358e-16 0 0)
(1.61169e-16 0 0)
(-2.86397e-16 2.60208e-17 0)
(-5.5836e-16 5.85467e-17 0)
(-4.87157e-16 -1.0083e-16 0)
(-3.5031e-16 -6.39677e-17 0)
(-3.12249e-16 -1.44198e-16 0)
(2.4286e-16 1.99492e-16 0)
(2.17913e-16 0 0)
(-1.15807e-16 -1.77809e-16 0)
(-9.17215e-17 -4.55363e-16 0)
(-1.79334e-17 -1.64798e-16 0)
(7.51279e-17 0 0)
(3.45594e-16 1.19262e-16 0)
(1.332e-16 3.14417e-16 0)
(-5.39212e-17 1.84314e-16 0)
(1.86115e-16 -2.1684e-18 0)
(4.28268e-16 0 0)
(6.03319e-17 0 0)
(-3.0785e-16 0 0)
(-1.93927e-17 -7.37255e-17 0)
(2.17078e-16 0 0)
(2.34998e-17 9.32411e-17 0)
(-2.59079e-16 8.23991e-17 0)
(-2.89418e-16 0 0)
(-6.9435e-17 0 0)
(4.36512e-17 0 0)
(2.23818e-16 0 0)
(1.73894e-18 9.32411e-17 0)
(-2.0992e-16 0 0)
(-3.57778e-17 0 0)
(-1.57392e-17 0 0)
(-6.47173e-17 0 0)
(-2.68329e-17 0 0)
(7.38455e-17 0 0)
(9.84424e-13 -1.01915e-16 0)
(4.91456e-09 -1.95156e-17 0)
(2.55548e-06 -1.7564e-16 0)
(0.000193496 -1.51379e-15 0)
(0.00317396 4.51153e-15 0)
(0.0174778 4.33336e-15 0)
(0.0486165 -9.92808e-15 0)
(0.0922465 1.60484e-14 0)
(0.142375 -5.9801e-15 0)
(0.195712 8.83583e-15 0)
(0.250832 -8.39221e-15 0)
(0.3071 9.17305e-15 0)
(0.364199 2.78662e-16 0)
(0.421968 -5.54288e-15 0)
(0.48034 6.49975e-15 0)
(0.539304 4.09163e-15 0)
(0.598885 1.18004e-15 0)
(0.659079 -2.98015e-15 0)
(0.719823 5.76281e-15 0)
(0.78057 -2.26059e-15 0)
(0.840036 2.38151e-15 0)
(0.893947 3.51804e-15 0)
(0.931043 5.5761e-15 0)
(0.939625 3.3119e-15 0)
(0.924455 7.60813e-16 0)
(0.926001 6.82989e-16 0)
(0.927304 -7.99201e-16 0)
(0.927588 -2.49728e-15 0)
(0.92766 -1.07706e-15 0)
(0.927592 -1.71989e-15 0)
(0.927736 -1.91838e-15 0)
(0.928053 -9.01234e-16 0)
(0.92839 -1.29982e-15 0)
(0.928882 -1.75773e-15 0)
(0.929729 -8.18515e-16 0)
(0.93206 1.44736e-15 0)
(0.929197 -1.55358e-15 0)
(0.923131 -3.35146e-16 0)
(0.924361 -8.30081e-17 0)
(0.925895 6.36981e-16 0)
(0.929291 -9.91192e-17 0)
(0.931363 -8.28844e-16 0)
(0.928112 -1.41859e-15 0)
(0.899173 -5.28097e-16 0)
(0.740399 1.70359e-16 0)
(0.304313 3.52611e-16 0)
(0.0196955 -1.4989e-15 0)
(0.000104495 3.58836e-16 0)
(3.35221e-08 -3.49112e-16 0)
(9.77812e-13 -2.5045e-16 0)
(4.84482e-17 -4.11995e-17 0)
(-3.4158e-17 -2.08166e-16 0)
(6.69327e-19 -3.39354e-16 0)
(7.88243e-17 -3.01407e-16 0)
(2.18121e-16 -2.56955e-16 0)
(1.07826e-16 -1.19262e-16 0)
(1.63475e-16 3.79469e-17 0)
(1.25634e-16 3.57785e-17 0)
(-1.11636e-17 0 0)
(-3.51106e-16 0 0)
(-5.91507e-16 5.96309e-17 0)
(-5.59947e-16 1.61546e-16 0)
(-3.56724e-16 -4.01153e-17 0)
(6.98711e-17 -1.0842e-18 0)
(4.34152e-16 0 0)
(5.12568e-16 -1.24683e-16 0)
(3.18883e-16 -2.51534e-16 0)
(-5.17766e-17 -3.46943e-17 0)
(-4.50959e-16 2.27682e-16 0)
(-6.66049e-16 1.31188e-16 0)
(-5.21849e-16 2.24429e-16 0)
(-4.2609e-16 2.02745e-16 0)
(5.8113e-16 4.79216e-16 0)
(3.22375e-16 1.84314e-16 0)
(-1.46205e-16 1.47451e-16 0)
(-2.76617e-16 -1.58293e-16 0)
(-6.77544e-17 2.1684e-18 0)
(2.59962e-16 2.81892e-17 0)
(4.16967e-16 4.03322e-16 0)
(1.57741e-16 6.65698e-16 0)
(-3.12492e-17 4.74879e-16 0)
(2.22022e-16 2.21176e-16 0)
(3.44304e-16 1.36609e-16 0)
(8.02764e-17 -1.36609e-16 0)
(-2.24262e-16 -7.80623e-17 0)
(-1.37776e-17 -2.66713e-16 0)
(2.24425e-16 -6.28835e-17 0)
(-9.01985e-19 3.68627e-17 0)
(-2.85696e-16 3.25259e-16 0)
(-4.14819e-16 1.43114e-16 0)
(-1.39547e-16 0 0)
(6.45352e-17 0 0)
(2.21528e-16 0 0)
(6.83207e-18 -3.03576e-17 0)
(-2.4607e-16 0 0)
(-6.34441e-17 0 0)
(-9.11345e-17 0 0)
(-1.61378e-16 0 0)
(-7.7581e-17 0 0)
(4.42048e-17 0 0)
(9.83903e-13 -7.35086e-16 0)
(4.91456e-09 -2.61292e-15 0)
(2.55548e-06 4.8312e-15 0)
(0.000193496 -5.61056e-15 0)
(0.00317396 1.47609e-14 0)
(0.0174778 1.72982e-15 0)
(0.0486165 -9.54614e-15 0)
(0.0922465 1.85388e-14 0)
(0.142375 -6.77876e-15 0)
(0.195712 3.154e-15 0)
(0.250832 -4.45942e-15 0)
(0.3071 5.67316e-15 0)
(0.364199 -2.08922e-15 0)
(0.421968 -2.99912e-16 0)
(0.48034 -3.14718e-17 0)
(0.539304 3.90095e-16 0)
(0.598885 8.45265e-16 0)
(0.659079 -5.39834e-15 0)
(0.719823 3.77374e-15 0)
(0.78057 -3.4217e-15 0)
(0.840036 2.25789e-15 0)
(0.893947 4.54147e-15 0)
(0.931043 4.74237e-15 0)
(0.939625 3.8775e-15 0)
(0.924455 1.26644e-15 0)
(0.926001 6.6841e-16 0)
(0.927304 -2.71468e-15 0)
(0.927588 -4.37905e-15 0)
(0.92766 -5.9079e-16 0)
(0.927592 -2.11106e-15 0)
(0.927736 -1.53236e-15 0)
(0.928053 1.63952e-16 0)
(0.92839 -1.72431e-15 0)
(0.928882 -2.81832e-16 0)
(0.929729 -1.88885e-15 0)
(0.93206 1.13252e-15 0)
(0.929197 -1.48531e-15 0)
(0.923131 7.35473e-16 0)
(0.924361 -1.72977e-15 0)
(0.925895 -5.43701e-16 0)
(0.929291 -1.438e-16 0)
(0.931363 -3.20165e-15 0)
(0.928112 -3.0254e-15 0)
(0.899173 -2.53047e-15 0)
(0.740399 -1.63092e-15 0)
(0.304313 4.61785e-15 0)
(0.0196955 -6.01264e-15 0)
(0.000104495 1.65758e-15 0)
(3.35221e-08 -1.59702e-15 0)
(9.77952e-13 -4.73795e-16 0)
(-2.15412e-18 -2.01661e-16 0)
(-1.28204e-16 -4.33679e-16 0)
(3.34594e-18 -5.84383e-16 0)
(1.20731e-16 -5.3451e-16 0)
(2.88108e-16 -4.88973e-16 0)
(1.72476e-16 -3.14417e-16 0)
(2.13695e-16 -1.11672e-16 0)
(1.65899e-16 0 0)
(2.77201e-17 0 0)
(-1.14794e-16 -6.72203e-17 0)
(-3.95799e-16 1.36609e-16 0)
(-5.94956e-16 3.54533e-16 0)
(-3.61009e-16 1.60461e-16 0)
(4.13744e-17 2.92734e-17 0)
(3.83947e-16 9.10727e-17 0)
(5.35286e-16 -3.02491e-16 0)
(3.62706e-16 -4.75963e-16 0)
(1.07218e-16 -2.21176e-16 0)
(-3.68222e-16 7.58939e-17 0)
(-6.40832e-16 3.35017e-16 0)
(-5.43401e-16 4.57532e-16 0)
(-6.45098e-16 4.23922e-16 0)
(7.95802e-16 2.49366e-16 0)
(4.00188e-16 1.04083e-16 0)
(-1.46399e-16 1.32272e-16 0)
(-3.2419e-16 2.14671e-16 0)
(1.88668e-17 1.01915e-16 0)
(4.01452e-16 2.62376e-16 0)
(6.01425e-16 2.23345e-16 0)
(2.31095e-16 3.49112e-16 0)
(-2.13199e-16 2.9707e-16 0)
(2.84833e-16 2.9707e-16 0)
(-1.53954e-17 -3.76759e-31 0)
(-1.41039e-16 -2.53702e-16 0)
(-2.05279e-16 -1.0842e-17 0)
(-3.71241e-17 9.75778e-17 0)
(2.4465e-16 1.0842e-17 0)
(2.00322e-16 -1.64798e-16 0)
(-1.30194e-16 1.17093e-16 0)
(-5.01216e-16 2.34187e-16 0)
(-2.07835e-16 8.67359e-17 0)
(6.43535e-17 1.92987e-16 0)
(-1.67271e-16 3.90311e-17 0)
(-1.04427e-16 -2.08166e-16 0)
(1.31454e-16 3.46943e-17 0)
(3.76773e-17 2.60208e-16 0)
(-2.24902e-16 1.19262e-16 0)
(-3.2586e-16 2.38524e-17 0)
(-1.96341e-16 0 0)
(-6.84665e-18 0 0)
(9.82671e-13 -4.51026e-16 0)
(4.91456e-09 -3.129e-15 0)
(2.55548e-06 6.26017e-15 0)
(0.000193496 -5.62357e-15 0)
(0.00317396 1.49696e-14 0)
(0.0174778 2.03353e-15 0)
(0.0486165 -1.11914e-14 0)
(0.0922465 1.77986e-14 0)
(0.142375 -7.68643e-15 0)
(0.195712 -1.00856e-15 0)
(0.250832 -2.19671e-15 0)
(0.3071 4.03506e-15 0)
(0.364199 -3.70754e-15 0)
(0.421968 5.43454e-15 0)
(0.48034 -4.80524e-15 0)
(0.539304 -1.73356e-15 0)
(0.598885 -9.52542e-17 0)
(0.659079 -4.52505e-15 0)
(0.719823 1.11023e-15 0)
(0.78057 -2.86371e-15 0)
(0.840036 1.04031e-15 0)
(0.893947 -9.15181e-16 0)
(0.931043 5.42661e-15 0)
(0.939625 4.31473e-15 0)
(0.924455 2.02883e-15 0)
(0.926001 -2.91894e-16 0)
(0.927304 -1.52223e-15 0)
(0.927588 -3.6231e-15 0)
(0.92766 -9.91342e-16 0)
(0.927592 -2.89149e-15 0)
(0.927736 -8.95503e-16 0)
(0.928053 -3.24565e-16 0)
(0.92839 -1.22217e-15 0)
(0.928882 -3.7336e-16 0)
(0.929729 -2.60198e-15 0)
(0.93206 2.62606e-16 0)
(0.929197 -1.22722e-15 0)
(0.923131 1.71063e-15 0)
(0.924361 -2.77484e-15 0)
(0.925895 -3.26272e-15 0)
(0.929291 -2.85032e-16 0)
(0.931363 -3.74977e-15 0)
(0.928112 -3.41467e-15 0)
(0.899173 -3.44101e-15 0)
(0.740399 -3.24278e-15 0)
(0.304313 3.25063e-15 0)
(0.0196955 -4.93484e-15 0)
(0.000104495 1.82453e-15 0)
(3.35221e-08 -1.00071e-15 0)
(9.7827e-13 -1.10588e-16 0)
(-1.11466e-16 -1.10588e-16 0)
(-1.98582e-16 -2.28766e-16 0)
(-1.66111e-17 -3.07912e-16 0)
(1.57864e-16 -2.91649e-16 0)
(3.5263e-16 -2.72134e-16 0)
(2.49935e-16 -2.75386e-16 0)
(2.79996e-16 -1.13841e-16 0)
(1.99401e-16 0 0)
(5.05595e-17 -9.43252e-17 0)
(6.64546e-17 -2.39608e-16 0)
(-1.18524e-16 -8.67359e-18 0)
(-3.53689e-16 2.32018e-16 0)
(-2.78481e-16 3.53449e-16 0)
(-7.75791e-17 1.5504e-16 0)
(1.91767e-16 4.33679e-17 0)
(2.76121e-16 -1.51788e-16 0)
(4.60344e-16 -2.74302e-16 0)
(2.27101e-16 -1.18178e-16 0)
(-2.00539e-16 -1.05167e-16 0)
(-4.82844e-16 1.7564e-16 0)
(-6.09874e-16 2.61292e-16 0)
(-7.90381e-16 2.89481e-16 0)
(5.83299e-16 -2.1684e-18 0)
(2.74438e-16 2.55871e-16 0)
(-7.92351e-17 3.12249e-16 0)
(-3.82576e-17 4.98731e-16 0)
(1.97665e-16 3.62122e-16 0)
(4.28207e-16 5.83299e-16 0)
(4.16605e-16 3.46943e-16 0)
(1.24047e-16 8.23991e-17 0)
(-2.81587e-17 1.97324e-16 0)
(-8.23254e-17 -7.37255e-17 0)
(-3.25302e-16 -3.25259e-16 0)
(-7.60281e-17 -7.37255e-17 0)
(-2.09675e-16 2.27682e-16 0)
(9.32525e-18 4.66205e-16 0)
(2.31137e-16 2.47197e-16 0)
(8.98781e-17 1.73472e-17 0)
(-4.72049e-17 1.32272e-16 0)
(-3.19611e-16 4.03322e-16 0)
(-8.72831e-17 2.99239e-16 0)
(6.84234e-17 4.85721e-16 0)
(-1.66836e-16 2.51534e-16 0)
(-1.12392e-16 6.28835e-17 0)
(1.47346e-16 2.68881e-16 0)
(1.49258e-16 5.78962e-16 0)
(-2.04727e-16 3.72964e-16 0)
(-5.75651e-16 2.60208e-16 0)
(-4.609e-16 2.81892e-17 0)
(-1.41639e-16 6.50519e-17 0)
(9.82955e-13 6.15825e-16 0)
(4.91455e-09 -9.43252e-16 0)
(2.55548e-06 2.6216e-15 0)
(0.000193496 -2.06031e-15 0)
(0.00317396 5.6704e-15 0)
(0.0174778 4.65907e-15 0)
(0.0486165 -1.05733e-14 0)
(0.0922465 1.20085e-14 0)
(0.142375 -5.02221e-15 0)
(0.195712 -1.42046e-15 0)
(0.250832 1.47345e-15 0)
(0.3071 2.68863e-15 0)
(0.364199 -5.63284e-15 0)
(0.421968 1.02598e-14 0)
(0.48034 -7.8812e-15 0)
(0.539304 -5.50857e-15 0)
(0.598885 -3.56972e-16 0)
(0.659079 -3.40407e-15 0)
(0.719823 -1.51282e-15 0)
(0.78057 -4.54539e-15 0)
(0.840036 7.96558e-16 0)
(0.893947 -1.40598e-15 0)
(0.931043 6.55582e-15 0)
(0.939625 1.51825e-15 0)
(0.924455 6.96541e-16 0)
(0.926001 -1.49909e-15 0)
(0.927304 -1.70505e-15 0)
(0.927588 -3.33171e-15 0)
(0.92766 -3.06421e-15 0)
(0.927592 -2.94631e-15 0)
(0.927736 4.80244e-16 0)
(0.928053 -1.49493e-15 0)
(0.92839 -3.90756e-16 0)
(0.928882 -1.08843e-15 0)
(0.929729 -4.33805e-16 0)
(0.93206 2.738e-16 0)
(0.929197 -2.13106e-15 0)
(0.923131 -9.80288e-17 0)
(0.924361 -9.89911e-16 0)
(0.925895 -3.47969e-15 0)
(0.929291 -1.44365e-15 0)
(0.931363 -3.27849e-16 0)
(0.928112 -9.49829e-16 0)
(0.899173 -1.7006e-15 0)
(0.740399 -2.64831e-15 0)
(0.304313 -7.29803e-16 0)
(0.0196955 9.9038e-16 0)
(0.000104495 2.12916e-15 0)
(3.35221e-08 1.03541e-15 0)
(9.77654e-13 -1.0842e-18 0)
(-1.2171e-16 -6.17993e-17 0)
(-5.47367e-17 1.06251e-16 0)
(1.17134e-16 1.70219e-16 0)
(1.80492e-17 6.72203e-17 0)
(1.15334e-16 6.28835e-17 0)
(2.68493e-16 -4.11995e-17 0)
(2.96514e-16 -1.0842e-17 0)
(1.06681e-16 -7.58939e-18 0)
(-5.35187e-17 -1.68051e-16 0)
(7.96108e-17 -5.63783e-17 0)
(1.06687e-16 0 0)
(-6.63574e-17 -1.95156e-17 0)
(-2.11532e-16 1.5504e-16 0)
(-1.3069e-16 5.42099e-17 0)
(4.33278e-17 1.94071e-16 0)
(2.0335e-16 2.39608e-16 0)
(3.31312e-16 8.78201e-17 0)
(1.03207e-16 -1.45283e-16 0)
(-2.66055e-16 -2.4286e-16 0)
(-4.96539e-16 -9.75778e-18 0)
(-5.55559e-16 4.11995e-17 0)
(-7.0256e-16 1.22514e-16 0)
(7.8496e-16 -2.25513e-16 0)
(3.93383e-16 -9.97462e-17 0)
(-7.50176e-17 -3.25259e-17 0)
(-1.17449e-16 2.23345e-16 0)
(2.35143e-16 1.82145e-16 0)
(5.8066e-16 2.9707e-16 0)
(2.29537e-16 -3.90311e-17 0)
(-3.70341e-17 -3.96817e-16 0)
(-2.54188e-16 -2.40692e-16 0)
(-4.46656e-16 -4.42353e-16 0)
(-1.06715e-16 -1.04083e-16 0)
(1.76692e-16 1.95156e-16 0)
(-2.76696e-17 4.77047e-17 0)
(-2.09904e-16 2.47197e-16 0)
(-3.7282e-17 -4.33679e-18 0)
(2.73857e-16 -6.93887e-17 0)
(1.76062e-16 -1.6263e-16 0)
(-1.31162e-17 2.1684e-17 0)
(9.2189e-18 4.33679e-18 0)
(5.77696e-17 5.85467e-17 0)
(-1.27263e-16 -1.19262e-16 0)
(-9.14107e-17 4.33679e-18 0)
(1.49128e-16 8.89043e-17 0)
(5.55115e-17 2.10334e-16 0)
(-3.25606e-16 8.67359e-18 0)
(-7.47041e-16 -2.1684e-18 0)
(-7.8181e-16 0 0)
(-1.77538e-16 -4.77047e-17 0)