/*--------------------------------*- C++ -*----------------------------------*\
| =========                 |                                                 |
| \\      /  F ield         | OpenFOAM: The Open Source CFD Toolbox           |
|  \\    /   O peration     | Version:  4.1                                   |
|   \\  /    A nd           | Web:      www.OpenFOAM.org                      |
|    \\/     M anipulation  |                                                 |
\*---------------------------------------------------------------------------*/
FoamFile
{
    version     2.0;
    format      ascii;
    class       volVectorField;
    location    "0.39";
    object      U;
}
// * * * * * * * * * * * * * * * * * * * * * * * * * * * * * * * * * * * * * //

dimensions      [0 1 -1 0 0 0 0];

internalField   nonuniform List<vector> 
10000
(
(0 0 0)
(1.90895e-16 0 0)
(3.09371e-16 0 0)
(1.01796e-16 1.58293e-16 0)
(-1.21332e-16 0 0)
(-3.05192e-16 0 0)
(-2.79348e-16 0 0)
(-5.23266e-17 0 0)
(-2.32407e-20 0 0)
(2.51459e-16 1.51788e-16 0)
(5.20189e-16 0 0)
(1.82117e-16 -1.56125e-16 0)
(-1.95048e-16 0 0)
(5.98511e-17 0 0)
(1.64401e-16 0 0)
(-5.10441e-17 1.34441e-16 0)
(-2.63187e-16 0 0)
(-1.55156e-16 0 0)
(-5.38859e-17 0 0)
(-1.0212e-16 0 0)
(2.20467e-13 1.30104e-17 0)
(1.39376e-09 2.30501e-15 0)
(8.96881e-07 -8.95548e-16 0)
(8.2165e-05 6.77237e-15 0)
(0.00157741 2.06056e-15 0)
(0.00974648 -6.83679e-15 0)
(0.0291688 -1.42389e-14 0)
(0.0577161 9.14991e-15 0)
(0.0911931 -3.58598e-15 0)
(0.127072 3.87259e-15 0)
(0.164238 2.25633e-14 0)
(0.202203 2.12277e-14 0)
(0.240721 1.60668e-14 0)
(0.279649 1.30212e-14 0)
(0.318897 -1.3633e-15 0)
(0.358407 3.91459e-14 0)
(0.398143 -2.04079e-14 0)
(0.438083 5.19515e-15 0)
(0.478218 -4.30057e-15 0)
(0.518547 7.11412e-15 0)
(0.559073 -1.13296e-15 0)
(0.599802 4.25381e-14 0)
(0.640735 6.05368e-14 0)
(0.681862 9.61444e-14 0)
(0.723149 3.1331e-14 0)
(0.764517 6.36897e-14 0)
(0.805766 1.4951e-14 0)
(0.846403 -4.19937e-14 0)
(0.884842 4.28136e-14 0)
(0.916862 1.21308e-13 0)
(0.933659 1.17817e-14 0)
(0.934074 1.7475e-15 0)
(0.925374 -2.93895e-15 0)
(0.926695 -4.11428e-15 0)
(0.927588 2.91694e-15 0)
(0.927812 9.13194e-15 0)
(0.92797 1.23677e-14 0)
(0.928127 1.52779e-14 0)
(0.928414 1.164e-14 0)
(0.928491 9.16322e-15 0)
(0.928279 8.94634e-15 0)
(0.928128 9.42869e-15 0)
(0.928118 6.86862e-15 0)
(0.928122 7.19124e-15 0)
(0.928101 2.72899e-15 0)
(0.928127 5.19826e-15 0)
(0.928332 2.7631e-15 0)
(0.928711 -9.78228e-16 0)
(0.929071 5.30683e-15 0)
(0.93041 -1.58032e-14 0)
(0.927182 -1.52467e-14 0)
(0.923415 -9.15929e-15 0)
(0.927011 -8.86554e-15 0)
(0.928458 -6.9025e-15 0)
(0.929339 -6.94743e-15 0)
(0.929368 -7.7979e-15 0)
(0.928576 -6.22234e-15 0)
(0.927159 -4.53826e-15 0)
(0.926053 -7.16806e-16 0)
(0.925544 -3.02652e-15 0)
(0.924945 -4.63221e-15 0)
(0.922776 -4.55071e-15 0)
(0.908906 -5.01918e-15 0)
(0.828621 -5.39489e-15 0)
(0.517966 -2.60059e-15 0)
(0.0893823 -2.54606e-16 0)
(0.0015534 3.46467e-17 0)
(1.92875e-06 5.74624e-17 0)
(1.23877e-10 0 0)
(3.10291e-15 4.33679e-18 0)
(-3.61632e-16 -6.50519e-18 0)
(-4.67729e-16 0 0)
(-2.76677e-16 1.19262e-16 0)
(2.86774e-17 0 0)
(2.46087e-16 0 0)
(-7.48311e-19 0 0)
(-2.65192e-16 2.01661e-16 0)
(-3.48044e-16 1.8323e-16 0)
(-2.98946e-16 1.12757e-16 0)
(-1.68051e-16 1.86482e-16 0)
(0 0 0)
(2.26055e-16 0 0)
(3.13976e-16 1.38777e-16 0)
(1.02707e-16 3.42607e-16 0)
(-1.17822e-16 1.27935e-16 0)
(-3.23142e-16 2.64544e-16 0)
(-3.23012e-16 4.98731e-17 0)
(-6.07952e-17 0 0)
(-4.19306e-19 0 0)
(2.49218e-16 0 0)
(5.55075e-16 0 0)
(1.89759e-16 0 0)
(-1.73136e-16 0 0)
(7.46652e-17 0 0)
(1.62882e-16 1.30104e-16 0)
(-5.57633e-17 3.18754e-16 0)
(-2.65787e-16 1.27935e-16 0)
(-1.62929e-16 0 0)
(-7.14171e-17 0 0)
(-1.09965e-16 0 0)
(2.20509e-13 -2.38524e-17 0)
(1.39376e-09 4.32161e-15 0)
(8.96881e-07 -5.009e-16 0)
(8.2165e-05 1.73874e-14 0)
(0.00157741 1.22613e-14 0)
(0.00974648 -1.96533e-14 0)
(0.0291688 -7.80518e-15 0)
(0.0577161 2.50538e-14 0)
(0.0911931 -9.11494e-15 0)
(0.127072 -2.14177e-15 0)
(0.164238 2.75125e-14 0)
(0.202203 1.6193e-15 0)
(0.240721 1.18185e-14 0)
(0.279649 1.45794e-14 0)
(0.318897 5.7107e-15 0)
(0.358407 2.52613e-14 0)
(0.398143 -1.14038e-14 0)
(0.438083 2.56253e-14 0)
(0.478218 2.71389e-15 0)
(0.518547 4.93888e-15 0)
(0.559073 1.11817e-14 0)
(0.599802 3.7446e-14 0)
(0.640735 3.00558e-14 0)
(0.681862 4.03506e-14 0)
(0.723149 1.93337e-14 0)
(0.764517 5.3512e-14 0)
(0.805766 1.60571e-14 0)
(0.846403 1.90819e-14 0)
(0.884842 1.09271e-14 0)
(0.916862 7.20504e-14 0)
(0.933659 2.26687e-14 0)
(0.934074 1.10355e-14 0)
(0.925374 4.6339e-15 0)
(0.926695 6.62663e-15 0)
(0.927588 6.59531e-15 0)
(0.927812 1.03105e-14 0)
(0.92797 9.82884e-15 0)
(0.928127 5.63712e-15 0)
(0.928414 5.0983e-15 0)
(0.928491 8.78972e-15 0)
(0.928279 1.05074e-14 0)
(0.928128 1.049e-14 0)
(0.928118 9.12168e-15 0)
(0.928122 9.91867e-15 0)
(0.928101 5.35104e-15 0)
(0.928127 6.46746e-15 0)
(0.928332 -6.11474e-16 0)
(0.928711 8.0583e-15 0)
(0.929071 -2.12742e-15 0)
(0.93041 6.93665e-16 0)
(0.927182 -6.28605e-15 0)
(0.923415 -7.5034e-15 0)
(0.927011 -8.02086e-15 0)
(0.928458 -6.13356e-15 0)
(0.929339 -3.53221e-15 0)
(0.929368 -6.12777e-16 0)
(0.928576 6.42223e-16 0)
(0.927159 1.66821e-15 0)
(0.926053 3.95294e-15 0)
(0.925544 1.87122e-15 0)
(0.924945 2.20221e-15 0)
(0.922776 -1.94716e-17 0)
(0.908906 -1.17349e-15 0)
(0.828621 -2.74305e-15 0)
(0.517966 6.10938e-16 0)
(0.0893823 -1.29416e-15 0)
(0.0015534 -1.36097e-15 0)
(1.92875e-06 7.0798e-16 0)
(1.23877e-10 -7.48097e-17 0)
(3.03669e-15 1.27935e-16 0)
(-2.59366e-16 5.85467e-17 0)
(-3.3357e-16 2.02745e-16 0)
(-1.9512e-16 3.22007e-16 0)
(-6.11495e-18 1.32272e-16 0)
(2.04268e-16 1.40946e-17 0)
(-3.16857e-17 7.58939e-17 0)
(-2.92827e-16 3.32849e-16 0)
(-4.02271e-16 3.87059e-16 0)
(-4.04359e-16 2.99239e-16 0)
(-3.74048e-16 3.91396e-16 0)
(0 0 0)
(2.60045e-16 0 0)
(5.20576e-16 0 0)
(1.13939e-16 1.06251e-16 0)
(-3.50511e-16 3.44775e-16 0)
(-3.25806e-16 5.91972e-16 0)
(-3.5015e-16 2.73218e-16 0)
(-4.78314e-17 0 0)
(-4.11931e-18 0 0)
(2.51278e-16 0 0)
(5.76985e-16 0 0)
(2.16289e-16 2.1684e-18 0)
(-1.44527e-16 8.67359e-17 0)
(8.70239e-17 3.14417e-16 0)
(3.2894e-16 1.8865e-16 0)
(-3.90928e-17 8.45675e-17 0)
(-4.08384e-16 0 0)
(-1.68752e-16 0 0)
(-9.30321e-17 1.01915e-16 0)
(-1.3759e-16 0 0)
(2.20644e-13 5.1391e-16 0)
(1.39376e-09 7.17739e-16 0)
(8.96881e-07 2.11853e-15 0)
(8.2165e-05 1.5607e-14 0)
(0.00157741 2.61901e-14 0)
(0.00974648 -1.47077e-14 0)
(0.0291688 -6.69936e-15 0)
(0.0577161 2.9348e-14 0)
(0.0911931 -8.72471e-15 0)
(0.127072 -9.8652e-15 0)
(0.164238 3.09502e-14 0)
(0.202203 -2.5083e-15 0)
(0.240721 1.03744e-14 0)
(0.279649 1.29162e-14 0)
(0.318897 6.70922e-15 0)
(0.358407 2.20718e-14 0)
(0.398143 -7.77048e-15 0)
(0.438083 3.01513e-14 0)
(0.478218 8.02267e-15 0)
(0.518547 3.31089e-16 0)
(0.559073 1.84516e-14 0)
(0.599802 3.44617e-14 0)
(0.640735 1.98836e-14 0)
(0.681862 1.71316e-14 0)
(0.723149 1.49308e-14 0)
(0.764517 4.34534e-14 0)
(0.805766 1.47232e-14 0)
(0.846403 2.9321e-14 0)
(0.884842 4.8321e-15 0)
(0.916862 5.30851e-14 0)
(0.933659 1.66716e-14 0)
(0.934074 9.0838e-15 0)
(0.925374 5.77127e-15 0)
(0.926695 1.02509e-14 0)
(0.927588 4.77982e-15 0)
(0.927812 7.66233e-15 0)
(0.92797 5.91906e-15 0)
(0.928127 3.71049e-15 0)
(0.928414 2.33379e-15 0)
(0.928491 4.11259e-15 0)
(0.928279 9.34685e-15 0)
(0.928128 9.92242e-15 0)
(0.928118 1.0037e-14 0)
(0.928122 1.10039e-14 0)
(0.928101 6.25157e-15 0)
(0.928127 7.95378e-15 0)
(0.928332 -1.1612e-15 0)
(0.928711 8.88738e-15 0)
(0.929071 -5.98654e-15 0)
(0.93041 6.02432e-15 0)
(0.927182 -1.87584e-16 0)
(0.923415 -4.70439e-15 0)
(0.927011 -4.82095e-15 0)
(0.928458 -4.45853e-15 0)
(0.929339 5.72111e-16 0)
(0.929368 3.40129e-15 0)
(0.928576 6.51552e-15 0)
(0.927159 7.32579e-15 0)
(0.926053 3.76797e-15 0)
(0.925544 4.88647e-15 0)
(0.924945 3.98261e-15 0)
(0.922776 2.81262e-15 0)
(0.908906 3.40084e-15 0)
(0.828621 1.50475e-15 0)
(0.517966 4.07981e-15 0)
(0.0893823 -2.33875e-15 0)
(0.0015534 -2.58226e-15 0)
(1.92875e-06 2.96311e-15 0)
(1.23877e-10 -5.39931e-16 0)
(2.87492e-15 2.95986e-16 0)
(-1.90494e-16 2.20092e-16 0)
(-1.40409e-16 3.93564e-16 0)
(-1.61983e-16 5.29089e-16 0)
(-7.34232e-17 3.85975e-16 0)
(1.01951e-16 2.87313e-16 0)
(-1.09547e-17 1.73472e-16 0)
(-2.44761e-16 3.81638e-16 0)
(-4.54352e-16 5.90888e-16 0)
(-5.14264e-16 4.96563e-16 0)
(-5.83299e-16 5.99562e-16 0)
(-2.1684e-18 -2.1684e-18 0)
(2.6641e-16 -2.1684e-18 0)
(5.65897e-16 -2.1684e-18 0)
(1.62585e-16 3.90311e-17 0)
(-3.10498e-16 2.86228e-16 0)
(-6.941e-16 2.1684e-16 0)
(-3.7564e-16 -2.1684e-18 0)
(-2.41398e-17 -2.1684e-18 0)
(-1.73038e-17 0 0)
(1.71221e-16 0 0)
(4.14585e-16 -4.33679e-18 0)
(2.41199e-16 -4.98731e-17 0)
(1.20436e-16 3.03576e-16 0)
(1.78573e-16 6.54856e-16 0)
(2.89273e-16 3.9248e-16 0)
(-5.28516e-17 1.73472e-17 0)
(-3.95996e-16 -2.1684e-18 0)
(-1.51484e-16 1.17093e-16 0)
(-1.05722e-16 3.55617e-16 0)
(-2.09524e-16 1.7564e-16 0)
(2.2192e-13 8.76032e-16 0)
(1.39376e-09 4.20669e-16 0)
(8.96881e-07 1.52222e-15 0)
(8.2165e-05 5.87676e-15 0)
(0.00157741 4.14196e-14 0)
(0.00974648 -2.05301e-14 0)
(0.0291688 -1.15561e-14 0)
(0.0577161 3.45203e-14 0)
(0.0911931 -3.93989e-15 0)
(0.127072 -1.477e-14 0)
(0.164238 3.14857e-14 0)
(0.202203 -1.00642e-15 0)
(0.240721 8.49518e-15 0)
(0.279649 1.21854e-14 0)
(0.318897 4.70217e-15 0)
(0.358407 1.87696e-14 0)
(0.398143 -8.91654e-15 0)
(0.438083 3.14943e-14 0)
(0.478218 1.22555e-14 0)
(0.518547 -3.65227e-15 0)
(0.559073 2.39774e-14 0)
(0.599802 2.69572e-14 0)
(0.640735 1.31057e-14 0)
(0.681862 7.10951e-15 0)
(0.723149 1.43314e-14 0)
(0.764517 3.72289e-14 0)
(0.805766 1.51325e-14 0)
(0.846403 3.2163e-14 0)
(0.884842 -1.02761e-15 0)
(0.916862 3.63385e-14 0)
(0.933659 1.39767e-14 0)
(0.934074 9.91659e-15 0)
(0.925374 9.50898e-15 0)
(0.926695 7.53675e-15 0)
(0.927588 6.32941e-15 0)
(0.927812 6.71885e-15 0)
(0.92797 4.48422e-15 0)
(0.928127 7.15832e-15 0)
(0.928414 -6.49088e-16 0)
(0.928491 2.32108e-15 0)
(0.928279 6.26991e-15 0)
(0.928128 8.96772e-15 0)
(0.928118 1.30896e-14 0)
(0.928122 1.05769e-14 0)
(0.928101 4.11272e-15 0)
(0.928127 5.34223e-15 0)
(0.928332 -4.35406e-16 0)
(0.928711 9.20471e-15 0)
(0.929071 -4.62209e-15 0)
(0.93041 9.3213e-15 0)
(0.927182 -6.30876e-16 0)
(0.923415 -1.87777e-15 0)
(0.927011 -1.84555e-15 0)
(0.928458 -1.36324e-15 0)
(0.929339 3.52451e-15 0)
(0.929368 3.59923e-15 0)
(0.928576 8.57084e-15 0)
(0.927159 8.20167e-15 0)
(0.926053 5.9025e-15 0)
(0.925544 8.66271e-15 0)
(0.924945 7.49017e-15 0)
(0.922776 7.03948e-15 0)
(0.908906 4.63441e-15 0)
(0.828621 4.04492e-15 0)
(0.517966 5.95896e-15 0)
(0.0893823 -1.91206e-15 0)
(0.0015534 3.04241e-16 0)
(1.92875e-06 1.58401e-15 0)
(1.23879e-10 -4.16332e-16 0)
(2.82261e-15 2.37439e-16 0)
(-1.2247e-16 9.8662e-17 0)
(-2.05988e-17 2.13587e-16 0)
(-1.94932e-16 3.90311e-16 0)
(-2.04885e-16 5.91972e-16 0)
(-1.01383e-16 5.76793e-16 0)
(-1.78399e-16 4.14164e-16 0)
(-1.40959e-16 2.78639e-16 0)
(-3.56081e-16 3.53449e-16 0)
(-6.54964e-16 2.59123e-16 0)
(-8.37001e-16 3.49112e-16 0)
(-2.1684e-18 2.1684e-18 0)
(2.57276e-16 2.1684e-18 0)
(5.83679e-16 2.1684e-18 0)
(1.49866e-16 1.64798e-16 0)
(-6.47898e-16 -1.6263e-16 0)
(-6.83432e-16 -5.44268e-16 0)
(-3.35103e-16 -2.40692e-16 0)
(8.56218e-18 2.1684e-18 0)
(-3.53076e-17 0 0)
(1.8547e-16 -2.1684e-18 0)
(4.36457e-16 9.97462e-17 0)
(2.56311e-16 2.81892e-16 0)
(3.30604e-16 1.2143e-16 0)
(1.4971e-16 2.86228e-16 0)
(2.97741e-16 1.01915e-16 0)
(-5.31487e-17 9.32411e-17 0)
(-4.03094e-16 2.1684e-18 0)
(-1.92077e-16 2.1684e-18 0)
(-1.59567e-16 -2.1684e-18 0)
(-3.42997e-16 0 0)
(2.22492e-13 2.60208e-16 0)
(1.39376e-09 1.91469e-15 0)
(8.96881e-07 -2.10768e-15 0)
(8.2165e-05 -2.99693e-15 0)
(0.00157741 4.36191e-14 0)
(0.00974648 -1.76462e-14 0)
(0.0291688 -1.09904e-14 0)
(0.0577161 3.56704e-14 0)
(0.0911931 2.82425e-16 0)
(0.127072 -1.96833e-14 0)
(0.164238 2.7173e-14 0)
(0.202203 -3.84761e-15 0)
(0.240721 6.19688e-15 0)
(0.279649 9.31623e-15 0)
(0.318897 -2.00561e-15 0)
(0.358407 1.61314e-14 0)
(0.398143 -1.13777e-14 0)
(0.438083 2.89533e-14 0)
(0.478218 1.33711e-14 0)
(0.518547 -6.48968e-15 0)
(0.559073 2.55539e-14 0)
(0.599802 1.98477e-14 0)
(0.640735 1.30615e-14 0)
(0.681862 2.61555e-15 0)
(0.723149 1.3732e-14 0)
(0.764517 3.37424e-14 0)
(0.805766 1.21017e-14 0)
(0.846403 2.68087e-14 0)
(0.884842 -1.98697e-16 0)
(0.916862 2.70296e-14 0)
(0.933659 9.05091e-15 0)
(0.934074 4.44044e-15 0)
(0.925374 6.44372e-15 0)
(0.926695 1.52121e-15 0)
(0.927588 6.90192e-15 0)
(0.927812 7.28506e-15 0)
(0.92797 4.26475e-15 0)
(0.928127 1.15156e-14 0)
(0.928414 -4.50102e-15 0)
(0.928491 2.48701e-15 0)
(0.928279 6.40595e-15 0)
(0.928128 8.53538e-15 0)
(0.928118 1.41466e-14 0)
(0.928122 5.64858e-15 0)
(0.928101 4.0661e-15 0)
(0.928127 2.66088e-15 0)
(0.928332 -4.47403e-16 0)
(0.928711 9.88654e-15 0)
(0.929071 -5.47247e-15 0)
(0.93041 9.64194e-15 0)
(0.927182 -4.2947e-16 0)
(0.923415 8.01617e-16 0)
(0.927011 -1.96424e-15 0)
(0.928458 1.37506e-15 0)
(0.929339 5.64415e-15 0)
(0.929368 2.32086e-15 0)
(0.928576 8.2915e-15 0)
(0.927159 3.72286e-15 0)
(0.926053 5.74162e-15 0)
(0.925544 9.45698e-15 0)
(0.924945 8.83596e-15 0)
(0.922776 6.51375e-15 0)
(0.908906 3.24445e-15 0)
(0.828621 5.38217e-15 0)
(0.517966 5.19404e-15 0)
(0.0893823 3.63795e-15 0)
(0.0015534 6.91851e-16 0)
(1.92875e-06 8.30494e-16 0)
(1.23879e-10 5.08489e-16 0)
(2.64093e-15 -1.0842e-18 0)
(-7.83708e-17 -1.32272e-16 0)
(1.36103e-16 -1.18178e-16 0)
(7.07882e-17 4.98731e-17 0)
(4.9282e-17 4.51026e-16 0)
(3.05354e-17 7.11234e-16 0)
(-1.95268e-16 6.33172e-16 0)
(-3.66586e-16 2.30934e-16 0)
(-5.8383e-16 -1.11672e-16 0)
(-8.2242e-16 -7.15571e-17 0)
(-1.00614e-15 -1.94071e-16 0)
(0 0 0)
(2.22794e-16 0 0)
(3.02363e-16 -2.10334e-16 0)
(-1.46252e-16 -4.597e-16 0)
(-7.23474e-16 -6.15825e-16 0)
(-3.86939e-16 -2.73218e-16 0)
(-6.24594e-17 -2.1684e-17 0)
(6.93164e-17 0 0)
(-4.20979e-17 0 0)
(1.97921e-16 7.37255e-17 0)
(4.5368e-16 3.57785e-16 0)
(2.55119e-16 5.48604e-16 0)
(-1.7694e-17 2.68881e-16 0)
(7.1352e-17 -7.80623e-17 0)
(3.02784e-16 -6.50519e-17 0)
(-5.39512e-17 -9.54094e-17 0)
(-4.08267e-16 0 0)
(-2.52003e-16 -1.01915e-16 0)
(-6.09172e-17 -3.55617e-16 0)
(-4.14589e-17 -1.73472e-16 0)
(2.22928e-13 1.0842e-16 0)
(1.39376e-09 1.79977e-16 0)
(8.96881e-07 -4.5558e-15 0)
(8.2165e-05 -4.56262e-15 0)
(0.00157741 3.37527e-14 0)
(0.00974648 -7.50364e-15 0)
(0.0291688 -1.40633e-14 0)
(0.0577161 3.05779e-14 0)
(0.0911931 6.69148e-16 0)
(0.127072 -1.68417e-14 0)
(0.164238 2.37466e-14 0)
(0.202203 -4.18179e-15 0)
(0.240721 6.49985e-15 0)
(0.279649 7.51625e-15 0)
(0.318897 -6.36589e-15 0)
(0.358407 1.35881e-14 0)
(0.398143 -1.08307e-14 0)
(0.438083 2.59694e-14 0)
(0.478218 1.25381e-14 0)
(0.518547 -8.36471e-15 0)
(0.559073 2.28391e-14 0)
(0.599802 1.30566e-14 0)
(0.640735 1.04569e-14 0)
(0.681862 -7.01149e-16 0)
(0.723149 1.23449e-14 0)
(0.764517 2.79804e-14 0)
(0.805766 1.39317e-14 0)
(0.846403 1.81924e-14 0)
(0.884842 6.25955e-15 0)
(0.916862 2.31698e-14 0)
(0.933659 7.09166e-15 0)
(0.934074 4.19816e-15 0)
(0.925374 3.07192e-15 0)
(0.926695 3.08817e-15 0)
(0.927588 7.23875e-15 0)
(0.927812 5.67581e-15 0)
(0.92797 3.03634e-15 0)
(0.928127 1.08529e-14 0)
(0.928414 -4.99086e-15 0)
(0.928491 1.10237e-15 0)
(0.928279 4.24891e-15 0)
(0.928128 6.5264e-15 0)
(0.928118 1.03892e-14 0)
(0.928122 2.28475e-15 0)
(0.928101 4.02697e-15 0)
(0.928127 2.31522e-15 0)
(0.928332 -1.10439e-16 0)
(0.928711 6.69731e-15 0)
(0.929071 -6.11036e-15 0)
(0.93041 7.73276e-15 0)
(0.927182 1.91435e-15 0)
(0.923415 5.74628e-16 0)
(0.927011 -3.1023e-15 0)
(0.928458 7.47369e-16 0)
(0.929339 5.2116e-15 0)
(0.929368 2.05011e-15 0)
(0.928576 5.71645e-15 0)
(0.927159 1.46834e-15 0)
(0.926053 3.35244e-15 0)
(0.925544 5.19168e-15 0)
(0.924945 5.71131e-15 0)
(0.922776 3.06421e-15 0)
(0.908906 2.0984e-15 0)
(0.828621 5.30589e-15 0)
(0.517966 -2.103e-16 0)
(0.0893823 6.19004e-15 0)
(0.0015534 -1.45624e-15 0)
(1.92875e-06 1.46041e-15 0)
(1.23877e-10 6.10404e-16 0)
(2.70971e-15 -1.89735e-16 0)
(-2.06437e-16 -1.40946e-17 0)
(1.6215e-17 -2.56955e-16 0)
(3.09812e-16 -1.92987e-16 0)
(3.67611e-16 1.37693e-16 0)
(1.32336e-16 4.49942e-16 0)
(-2.92486e-16 4.01153e-16 0)
(-5.95449e-16 -8.67359e-18 0)
(-7.79423e-16 -2.72134e-16 0)
(-6.77474e-16 -2.41776e-16 0)
(-7.78454e-16 -3.44775e-16 0)
(3.46943e-17 0 0)
(2.56273e-16 -1.79977e-16 0)
(-2.06606e-17 -5.29089e-16 0)
(-1.94208e-16 -9.08558e-16 0)
(-3.7823e-16 -7.17739e-16 0)
(-3.60411e-17 -3.68627e-16 0)
(2.16449e-16 0 0)
(1.69028e-16 2.38524e-17 0)
(-2.87833e-17 0 0)
(2.10635e-16 0 0)
(4.26923e-16 1.04083e-16 0)
(3.4426e-17 2.68881e-16 0)
(-2.80594e-16 6.50519e-18 0)
(-2.72387e-17 -5.20415e-17 0)
(2.29245e-16 0 0)
(-2.46005e-17 -9.32411e-17 0)
(-2.89759e-16 0 0)
(-3.00101e-16 0 0)
(-8.65629e-17 -1.19262e-16 0)
(1.41818e-16 0 0)
(2.22987e-13 0 0)
(1.39376e-09 -3.72964e-16 0)
(8.96881e-07 -2.34838e-15 0)
(8.2165e-05 -2.30517e-15 0)
(0.00157741 7.50833e-15 0)
(0.00974648 5.82231e-15 0)
(0.0291688 -1.48146e-14 0)
(0.0577161 2.67505e-14 0)
(0.0911931 -2.87698e-15 0)
(0.127072 -1.12431e-14 0)
(0.164238 1.95175e-14 0)
(0.202203 -4.98305e-15 0)
(0.240721 6.30098e-15 0)
(0.279649 9.00127e-15 0)
(0.318897 -6.26861e-15 0)
(0.358407 1.11204e-14 0)
(0.398143 -6.55528e-15 0)
(0.438083 2.04747e-14 0)
(0.478218 9.49696e-15 0)
(0.518547 -6.6578e-15 0)
(0.559073 1.80917e-14 0)
(0.599802 1.15863e-14 0)
(0.640735 9.79995e-15 0)
(0.681862 -1.84039e-16 0)
(0.723149 1.07808e-14 0)
(0.764517 2.03468e-14 0)
(0.805766 1.82061e-14 0)
(0.846403 7.50391e-15 0)
(0.884842 1.83422e-14 0)
(0.916862 1.49218e-14 0)
(0.933659 9.71817e-15 0)
(0.934074 9.75688e-15 0)
(0.925374 5.95184e-15 0)
(0.926695 5.77086e-15 0)
(0.927588 9.15348e-15 0)
(0.927812 4.11745e-15 0)
(0.92797 4.60446e-15 0)
(0.928127 7.6566e-15 0)
(0.928414 -1.58839e-15 0)
(0.928491 2.17327e-15 0)
(0.928279 1.95519e-15 0)
(0.928128 3.7536e-15 0)
(0.928118 5.9434e-15 0)
(0.928122 3.73906e-15 0)
(0.928101 3.21545e-15 0)
(0.928127 2.91593e-15 0)
(0.928332 7.19444e-16 0)
(0.928711 3.56325e-15 0)
(0.929071 -3.89636e-15 0)
(0.93041 6.58706e-15 0)
(0.927182 2.77822e-15 0)
(0.923415 7.84746e-16 0)
(0.927011 -6.36593e-16 0)
(0.928458 1.03913e-15 0)
(0.929339 3.42856e-15 0)
(0.929368 2.49367e-15 0)
(0.928576 2.88924e-15 0)
(0.927159 1.34943e-15 0)
(0.926053 1.73898e-15 0)
(0.925544 2.45553e-15 0)
(0.924945 2.04864e-15 0)
(0.922776 1.44295e-15 0)
(0.908906 1.0492e-15 0)
(0.828621 3.27043e-15 0)
(0.517966 -1.1456e-15 0)
(0.0893823 1.57091e-15 0)
(0.0015534 -2.21955e-16 0)
(1.92875e-06 4.38015e-16 0)
(1.23877e-10 2.00577e-16 0)
(2.77136e-15 1.0842e-18 0)
(-3.41934e-16 -1.6263e-17 0)
(1.29024e-17 -9.97462e-17 0)
(4.16384e-16 -9.8662e-17 0)
(4.8406e-16 0 0)
(1.95551e-16 0 0)
(-3.22913e-16 6.83045e-17 0)
(-6.51357e-16 8.02307e-17 0)
(-6.84512e-16 -6.50519e-17 0)
(-5.82807e-16 -3.46943e-17 0)
(-5.69204e-16 -1.36609e-16 0)
(3.79469e-16 1.99492e-16 0)
(3.66608e-16 0 0)
(-3.12241e-17 -2.1684e-16 0)
(-1.3153e-16 -5.61615e-16 0)
(-7.08671e-17 -3.31765e-16 0)
(1.01916e-16 -3.25259e-17 0)
(4.23239e-16 2.21176e-16 0)
(2.12359e-16 4.29343e-16 0)
(-4.55962e-18 2.81892e-16 0)
(2.61476e-16 8.45675e-17 0)
(4.36214e-16 0 0)
(7.11263e-17 0 0)
(-2.99596e-16 0 0)
(-8.08384e-18 -7.37255e-17 0)
(2.37478e-16 0 0)
(-4.39151e-17 9.32411e-17 0)
(-3.50912e-16 9.54094e-17 0)
(-4.28895e-16 0 0)
(-1.319e-16 0 0)
(1.16696e-16 0 0)
(2.23059e-13 -4.33679e-18 0)
(1.39376e-09 7.3075e-16 0)
(8.96881e-07 -1.57209e-15 0)
(8.2165e-05 1.72616e-15 0)
(0.00157741 -1.2029e-14 0)
(0.00974648 1.4406e-14 0)
(0.0291688 -1.4529e-14 0)
(0.0577161 2.00273e-14 0)
(0.0911931 -7.3911e-15 0)
(0.127072 -6.78912e-15 0)
(0.164238 1.53659e-14 0)
(0.202203 -6.81783e-15 0)
(0.240721 7.68904e-15 0)
(0.279649 9.69059e-15 0)
(0.318897 -7.54322e-15 0)
(0.358407 8.70896e-15 0)
(0.398143 -2.47494e-15 0)
(0.438083 1.46152e-14 0)
(0.478218 6.30872e-15 0)
(0.518547 -2.48402e-15 0)
(0.559073 1.46679e-14 0)
(0.599802 9.76517e-15 0)
(0.640735 9.8163e-15 0)
(0.681862 2.14545e-15 0)
(0.723149 1.00378e-14 0)
(0.764517 1.18089e-14 0)
(0.805766 1.88624e-14 0)
(0.846403 -1.29778e-15 0)
(0.884842 2.74859e-14 0)
(0.916862 1.09727e-14 0)
(0.933659 1.13543e-14 0)
(0.934074 1.17031e-14 0)
(0.925374 8.24054e-15 0)
(0.926695 8.00134e-15 0)
(0.927588 7.63155e-15 0)
(0.927812 3.97144e-15 0)
(0.92797 7.13252e-15 0)
(0.928127 5.94492e-15 0)
(0.928414 2.93711e-16 0)
(0.928491 2.33475e-15 0)
(0.928279 1.48412e-15 0)
(0.928128 3.86558e-15 0)
(0.928118 3.58282e-15 0)
(0.928122 3.38825e-15 0)
(0.928101 1.28657e-15 0)
(0.928127 2.24408e-15 0)
(0.928332 6.16414e-16 0)
(0.928711 3.99205e-15 0)
(0.929071 -2.48338e-15 0)
(0.93041 5.74869e-15 0)
(0.927182 -9.68528e-16 0)
(0.923415 2.04494e-16 0)
(0.927011 1.07589e-15 0)
(0.928458 9.84164e-16 0)
(0.929339 1.59575e-15 0)
(0.929368 2.15574e-15 0)
(0.928576 9.08748e-16 0)
(0.927159 6.72411e-16 0)
(0.926053 1.02269e-15 0)
(0.925544 1.51582e-16 0)
(0.924945 1.12107e-16 0)
(0.922776 4.43234e-16 0)
(0.908906 2.16469e-16 0)
(0.828621 6.92673e-16 0)
(0.517966 -5.28957e-16 0)
(0.0893823 -9.17789e-16 0)
(0.0015534 1.1206e-15 0)
(1.92875e-06 -3.14417e-16 0)
(1.23877e-10 -3.68627e-17 0)
(2.54882e-15 2.34187e-16 0)
(-3.60945e-16 -5.16147e-31 0)
(7.39622e-17 -1.0842e-18 0)
(4.82062e-16 0 0)
(5.97753e-16 -1.94071e-16 0)
(3.92803e-16 -3.3827e-16 0)
(-1.37573e-17 -9.10727e-17 0)
(-5.68233e-16 2.27682e-16 0)
(-8.52988e-16 1.92987e-16 0)
(-7.52076e-16 2.93818e-16 0)
(-6.85213e-16 2.1684e-16 0)
(7.65444e-16 4.85721e-16 0)
(5.04593e-16 1.84314e-16 0)
(-5.1075e-17 1.32272e-16 0)
(-2.99295e-16 -2.12503e-16 0)
(-1.29491e-16 2.1684e-18 0)
(2.99097e-16 1.04083e-16 0)
(4.82656e-16 5.37762e-16 0)
(2.11208e-16 8.04475e-16 0)
(1.6888e-17 6.13656e-16 0)
(2.75745e-16 3.29596e-16 0)
(3.73843e-16 1.51788e-16 0)
(7.31797e-17 -1.51788e-16 0)
(-2.33762e-16 -7.80623e-17 0)
(-8.23822e-18 -2.58039e-16 0)
(2.42194e-16 -4.33679e-17 0)
(-7.99911e-17 4.11995e-17 0)
(-3.82958e-16 3.5128e-16 0)
(-5.11454e-16 1.69135e-16 0)
(-2.1115e-16 0 0)
(8.4942e-17 0 0)
(2.22933e-13 -3.62122e-16 0)
(1.39376e-09 -1.93638e-15 0)
(8.96881e-07 -9.54095e-17 0)
(8.2165e-05 7.08031e-15 0)
(0.00157741 -2.8331e-14 0)
(0.00974648 2.20802e-14 0)
(0.0291688 -1.15838e-14 0)
(0.0577161 1.5445e-14 0)
(0.0911931 -1.05341e-14 0)
(0.127072 -1.94476e-15 0)
(0.164238 1.41551e-14 0)
(0.202203 -8.23843e-15 0)
(0.240721 1.07748e-14 0)
(0.279649 1.15569e-14 0)
(0.318897 -5.90526e-15 0)
(0.358407 7.22239e-15 0)
(0.398143 2.10009e-15 0)
(0.438083 9.93467e-15 0)
(0.478218 1.1801e-15 0)
(0.518547 -1.71549e-18 0)
(0.559073 1.05369e-14 0)
(0.599802 6.86699e-15 0)
(0.640735 9.94711e-15 0)
(0.681862 5.1881e-15 0)
(0.723149 9.50296e-15 0)
(0.764517 4.48072e-15 0)
(0.805766 1.92119e-14 0)
(0.846403 -6.75528e-15 0)
(0.884842 2.77285e-14 0)
(0.916862 9.77082e-15 0)
(0.933659 1.21943e-14 0)
(0.934074 1.32644e-14 0)
(0.925374 1.00624e-14 0)
(0.926695 9.94678e-15 0)
(0.927588 6.13317e-15 0)
(0.927812 2.73532e-15 0)
(0.92797 8.44108e-15 0)
(0.928127 3.89841e-15 0)
(0.928414 1.66182e-15 0)
(0.928491 5.20893e-15 0)
(0.928279 1.38494e-15 0)
(0.928128 4.78624e-15 0)
(0.928118 9.17879e-16 0)
(0.928122 2.38241e-15 0)
(0.928101 1.02867e-15 0)
(0.928127 2.55483e-15 0)
(0.928332 9.60082e-16 0)
(0.928711 3.4004e-15 0)
(0.929071 -8.73386e-16 0)
(0.93041 3.04018e-15 0)
(0.927182 -3.19437e-15 0)
(0.923415 1.33637e-15 0)
(0.927011 2.6666e-15 0)
(0.928458 2.3772e-15 0)
(0.929339 1.14217e-15 0)
(0.929368 2.83364e-15 0)
(0.928576 -3.64422e-16 0)
(0.927159 5.40696e-16 0)
(0.926053 -2.21344e-16 0)
(0.925544 -1.91167e-15 0)
(0.924945 -1.45125e-15 0)
(0.922776 -9.38734e-16 0)
(0.908906 -1.01968e-15 0)
(0.828621 -1.65899e-15 0)
(0.517966 -3.2322e-15 0)
(0.0893823 -3.99721e-15 0)
(0.0015534 2.98178e-15 0)
(1.92875e-06 -2.11744e-15 0)
(1.23877e-10 8.56517e-17 0)
(2.52805e-15 4.70542e-16 0)
(-3.84141e-16 2.25513e-16 0)
(2.33226e-17 6.93887e-17 0)
(4.40657e-16 8.56517e-17 0)
(6.04575e-16 -3.96817e-16 0)
(4.16711e-16 -5.84383e-16 0)
(1.40315e-16 -3.08997e-16 0)
(-4.1498e-16 7.58939e-17 0)
(-8.08209e-16 3.98985e-16 0)
(-8.26379e-16 5.43183e-16 0)
(-9.29158e-16 4.57532e-16 0)
(9.99631e-16 2.4286e-16 0)
(5.77497e-16 1.04083e-16 0)
(-4.60696e-17 1.34441e-16 0)
(-3.24399e-16 2.62376e-16 0)
(4.31297e-18 1.04083e-16 0)
(4.03247e-16 2.7105e-16 0)
(6.68005e-16 3.57785e-16 0)
(2.88952e-16 4.66205e-16 0)
(-1.67767e-16 4.33679e-16 0)
(3.00803e-16 2.55871e-16 0)
(1.83203e-18 -4.55363e-17 0)
(-1.56451e-16 -2.60208e-16 0)
(-2.19903e-16 -1.73472e-17 0)
(-2.3024e-17 1.0842e-16 0)
(2.57935e-16 3.03576e-17 0)
(1.14653e-16 -1.51788e-16 0)
(-2.15139e-16 1.32272e-16 0)
(-5.83264e-16 2.40692e-16 0)
(-2.74021e-16 9.32411e-17 0)
(3.21344e-17 1.92987e-16 0)
(2.22042e-13 -1.77809e-16 0)
(1.39376e-09 -3.05744e-15 0)
(8.96881e-07 2.50016e-15 0)
(8.2165e-05 7.73954e-15 0)
(0.00157741 -2.99573e-14 0)
(0.00974648 1.33653e-14 0)
(0.0291688 -2.62395e-15 0)
(0.0577161 9.59517e-15 0)
(0.0911931 -9.17471e-15 0)
(0.127072 4.26662e-16 0)
(0.164238 1.0509e-14 0)
(0.202203 -9.79837e-15 0)
(0.240721 1.08522e-14 0)
(0.279649 1.0326e-14 0)
(0.318897 -5.38454e-15 0)
(0.358407 7.13346e-15 0)
(0.398143 4.88228e-15 0)
(0.438083 7.28691e-15 0)
(0.478218 -5.41621e-15 0)
(0.518547 5.52901e-15 0)
(0.559073 5.91419e-15 0)
(0.599802 3.11009e-15 0)
(0.640735 9.18054e-15 0)
(0.681862 5.83924e-15 0)
(0.723149 8.82239e-15 0)
(0.764517 1.8824e-15 0)
(0.805766 1.55621e-14 0)
(0.846403 -8.10586e-15 0)
(0.884842 2.63779e-14 0)
(0.916862 5.10564e-15 0)
(0.933659 1.30561e-14 0)
(0.934074 1.49142e-14 0)
(0.925374 1.13597e-14 0)
(0.926695 8.45513e-15 0)
(0.927588 7.32303e-15 0)
(0.927812 2.63448e-15 0)
(0.92797 7.75881e-15 0)
(0.928127 1.28272e-15 0)
(0.928414 2.41326e-15 0)
(0.928491 6.73247e-15 0)
(0.928279 3.80358e-15 0)
(0.928128 3.18924e-15 0)
(0.928118 -3.50944e-16 0)
(0.928122 2.23431e-15 0)
(0.928101 1.05932e-15 0)
(0.928127 1.94406e-15 0)
(0.928332 9.63257e-16 0)
(0.928711 5.43714e-16 0)
(0.929071 -8.56236e-16 0)
(0.93041 2.11131e-15 0)
(0.927182 -2.38825e-15 0)
(0.923415 -2.29033e-16 0)
(0.927011 1.81884e-15 0)
(0.928458 2.71261e-15 0)
(0.929339 5.62362e-16 0)
(0.929368 2.40803e-15 0)
(0.928576 -3.46995e-16 0)
(0.927159 8.89201e-16 0)
(0.926053 -1.15335e-15 0)
(0.925544 -1.42979e-15 0)
(0.924945 -1.26901e-15 0)
(0.922776 -6.86116e-16 0)
(0.908906 -1.40757e-15 0)
(0.828621 -2.49208e-15 0)
(0.517966 -3.71482e-15 0)
(0.0893823 -2.10327e-15 0)
(0.0015534 1.73017e-15 0)
(1.92875e-06 -1.9006e-15 0)
(1.23878e-10 4.70542e-16 0)
(2.55517e-15 3.75133e-16 0)
(-3.15721e-16 4.25006e-16 0)
(-9.82988e-17 2.1684e-16 0)
(1.99419e-16 1.04083e-16 0)
(3.26281e-16 -1.81061e-16 0)
(5.33205e-16 -3.53449e-16 0)
(2.64663e-16 -2.08166e-16 0)
(-2.54349e-16 -1.19262e-16 0)
(-6.33149e-16 2.22261e-16 0)
(-8.92056e-16 3.39354e-16 0)
(-1.1113e-15 3.19838e-16 0)
(7.82791e-16 -2.1684e-18 0)
(4.57635e-16 2.55871e-16 0)
(2.47764e-17 3.07912e-16 0)
(-9.23325e-18 5.72457e-16 0)
(1.93222e-16 3.79469e-16 0)
(3.98908e-16 5.57278e-16 0)
(4.18972e-16 3.75133e-16 0)
(1.70127e-16 1.25767e-16 0)
(8.46643e-17 1.97324e-16 0)
(-9.35809e-17 -1.34441e-16 0)
(-3.2603e-16 -3.83806e-16 0)
(-6.93345e-17 -1.30104e-16 0)
(-2.27548e-16 2.19008e-16 0)
(1.72878e-17 4.79216e-16 0)
(2.36274e-16 2.64544e-16 0)
(8.6274e-17 3.03576e-17 0)
(-1.14903e-16 1.36609e-16 0)
(-4.01504e-16 4.20669e-16 0)
(-1.01106e-16 2.92734e-16 0)
(2.04879e-16 4.4669e-16 0)
(2.22142e-13 4.35848e-16 0)
(1.39376e-09 6.28835e-17 0)
(8.96881e-07 7.24245e-16 0)
(8.2165e-05 9.34427e-15 0)
(0.00157741 -1.21983e-14 0)
(0.00974648 1.75129e-15 0)
(0.0291688 4.37548e-15 0)
(0.0577161 1.57946e-15 0)
(0.0911931 -2.20549e-15 0)
(0.127072 3.23199e-15 0)
(0.164238 6.22749e-15 0)
(0.202203 -9.67321e-15 0)
(0.240721 8.55791e-15 0)
(0.279649 9.28446e-15 0)
(0.318897 -3.29453e-15 0)
(0.358407 4.50566e-15 0)
(0.398143 6.6321e-15 0)
(0.438083 6.18129e-15 0)
(0.478218 -7.51856e-15 0)
(0.518547 1.09568e-14 0)
(0.559073 2.70414e-15 0)
(0.599802 1.50831e-16 0)
(0.640735 8.00713e-15 0)
(0.681862 4.97806e-15 0)
(0.723149 8.61739e-15 0)
(0.764517 2.25173e-15 0)
(0.805766 9.96055e-15 0)
(0.846403 -1.12142e-14 0)
(0.884842 2.5566e-14 0)
(0.916862 4.9798e-15 0)
(0.933659 1.14948e-14 0)
(0.934074 1.2245e-14 0)
(0.925374 1.00574e-14 0)
(0.926695 6.76423e-15 0)
(0.927588 5.83451e-15 0)
(0.927812 2.50883e-15 0)
(0.92797 4.04973e-15 0)
(0.928127 -4.0733e-16 0)
(0.928414 6.19654e-15 0)
(0.928491 3.30425e-15 0)
(0.928279 5.40118e-15 0)
(0.928128 9.18118e-16 0)
(0.928118 1.90371e-15 0)
(0.928122 1.82439e-15 0)
(0.928101 1.54871e-16 0)
(0.928127 -2.78874e-16 0)
(0.928332 1.99144e-15 0)
(0.928711 5.7225e-16 0)
(0.929071 -1.81955e-16 0)
(0.93041 3.46006e-15 0)
(0.927182 1.64482e-15 0)
(0.923415 8.86482e-16 0)
(0.927011 2.22679e-15 0)
(0.928458 1.80755e-15 0)
(0.929339 2.08731e-15 0)
(0.929368 2.49674e-15 0)
(0.928576 2.34952e-15 0)
(0.927159 1.8235e-15 0)
(0.926053 -7.1988e-16 0)
(0.925544 1.24133e-15 0)
(0.924945 1.20912e-15 0)
(0.922776 2.10088e-16 0)
(0.908906 6.65979e-16 0)
(0.828621 -6.0367e-16 0)
(0.517966 -1.54053e-15 0)
(0.0893823 -1.22271e-15 0)
(0.0015534 -1.96404e-15 0)
(1.92875e-06 8.66273e-16 0)
(1.23877e-10 2.1684e-16 0)
(2.87803e-15 -2.60208e-17 0)
(-2.54253e-16 2.41776e-16 0)
(-1.38671e-16 1.26851e-16 0)
(4.27168e-17 2.80807e-16 0)
(2.10558e-16 3.03576e-16 0)
(3.378e-16 1.14925e-16 0)
(7.53033e-17 -1.51788e-16 0)
(-3.18307e-16 -2.91649e-16 0)
(-6.06007e-16 -1.0842e-18 0)
(-8.13284e-16 8.99885e-17 0)
(-1.01481e-15 2.04913e-16 0)
(9.82284e-16 -2.1684e-16 0)
(5.73109e-16 -9.97462e-17 0)
(5.40559e-17 -4.33679e-17 0)
(-4.72281e-17 2.58039e-16 0)
(3.00145e-16 1.97324e-16 0)
(6.25773e-16 2.60208e-16 0)
(2.97631e-16 -6.28835e-17 0)
(1.1572e-16 -3.96817e-16 0)
(-1.78372e-16 -2.7105e-16 0)
(-4.24197e-16 -5.16078e-16 0)
(-8.97682e-17 -1.71303e-16 0)
(1.87884e-16 1.30104e-16 0)
(-4.66332e-17 3.25259e-17 0)
(-2.14098e-16 2.51534e-16 0)
(-4.29019e-17 -4.33679e-18 0)
(2.70256e-16 -8.45675e-17 0)
(1.52767e-16 -1.64798e-16 0)
(-5.0229e-17 3.25259e-17 0)
(-7.64474e-17 4.33679e-18 0)
(3.60513e-16 2.81892e-17 0)
(2.22518e-13 2.21176e-16 0)
(1.39376e-09 2.62159e-15 0)
(8.96881e-07 -5.26921e-16 0)
(8.2165e-05 2.96224e-15 0)
(0.00157741 -5.27624e-16 0)
(0.00974648 -5.10737e-15 0)
(0.0291688 7.05833e-15 0)
(0.0577161 -4.89438e-15 0)