/*--------------------------------*- C++ -*----------------------------------*\
| =========                 |                                                 |
| \\      /  F ield         | OpenFOAM: The Open Source CFD Toolbox           |
|  \\    /   O peration     | Version:  4.1                                   |
|   \\  /    A nd           | Web:      www.OpenFOAM.org                      |
|    \\/     M anipulation  |                                                 |
\*---------------------------------------------------------------------------*/
FoamFile
{
    version     2.0;
    format      ascii;
    class       volVectorField;
    location    "0.46";
    object      U;
}
// * * * * * * * * * * * * * * * * * * * * * * * * * * * * * * * * * * * * * //

dimensions      [0 1 -1 0 0 0 0];

internalField   nonuniform List<vector> 
10000
(
(0 0 0)
(2.20739e-16 0 0)
(3.19041e-16 0 0)
(1.04041e-16 1.60461e-16 0)
(-1.20871e-16 0 0)
(-3.16657e-16 0 0)
(-3.00855e-16 0 0)
(-6.8604e-17 0 0)
(-3.70897e-19 0 0)
(2.63184e-16 1.56125e-16 0)
(5.31177e-16 0 0)
(1.96024e-16 -1.56125e-16 0)
(-1.41994e-16 0 0)
(4.00253e-17 0 0)
(3.59654e-17 0 0)
(2.11474e-16 1.7564e-16 0)
(1.49891e-12 -3.03576e-17 0)
(5.5879e-09 5.16078e-16 0)
(2.29023e-06 8.34834e-16 0)
(0.000145138 5.00744e-15 0)
(0.00211562 8.66089e-15 0)
(0.010896 4.91757e-15 0)
(0.029327 -2.41088e-15 0)
(0.0547873 1.43532e-14 0)
(0.0838804 -1.99367e-15 0)
(0.114746 4.30984e-15 0)
(0.146582 -2.06791e-14 0)
(0.179035 -8.27793e-15 0)
(0.211922 -1.8595e-15 0)
(0.245134 1.29962e-14 0)
(0.278598 1.19983e-14 0)
(0.312266 3.13657e-14 0)
(0.346105 2.16316e-14 0)
(0.380093 3.75652e-14 0)
(0.414214 -2.37556e-14 0)
(0.448462 4.58903e-14 0)
(0.482831 1.2994e-14 0)
(0.517322 3.72159e-15 0)
(0.551936 -2.24597e-14 0)
(0.586677 9.26285e-15 0)
(0.621546 -1.02746e-14 0)
(0.65654 2.65639e-14 0)
(0.69165 -2.24534e-14 0)
(0.726856 7.30727e-14 0)
(0.762115 1.11128e-13 0)
(0.797343 5.81525e-14 0)
(0.832346 4.01136e-14 0)
(0.86655 2.96173e-13 0)
(0.898265 -1.86483e-13 0)
(0.922909 -6.19892e-14 0)
(0.933722 8.20661e-14 0)
(0.932083 8.55173e-14 0)
(0.925697 7.32535e-14 0)
(0.926952 5.04436e-14 0)
(0.927598 2.76798e-14 0)
(0.927804 1.35679e-14 0)
(0.927951 3.73263e-15 0)
(0.928143 1.83797e-15 0)
(0.928413 6.10143e-15 0)
(0.928436 1.62718e-14 0)
(0.928258 1.81737e-14 0)
(0.928177 1.6273e-14 0)
(0.928198 1.65549e-14 0)
(0.928204 1.74272e-14 0)
(0.928151 1.10533e-14 0)
(0.928071 5.4754e-15 0)
(0.927997 8.11812e-15 0)
(0.927951 2.08215e-15 0)
(0.927975 3.12644e-15 0)
(0.92814 8.5762e-15 0)
(0.928474 3.32386e-15 0)
(0.928804 -3.35187e-15 0)
(0.928582 -1.85897e-14 0)
(0.929022 -2.6362e-14 0)
(0.929166 -3.10295e-14 0)
(0.927066 -1.97526e-14 0)
(0.925953 -9.37265e-15 0)
(0.92589 -5.2607e-15 0)
(0.925954 -2.9754e-15 0)
(0.92632 -2.63249e-15 0)
(0.927182 -3.5109e-15 0)
(0.928376 -4.91923e-15 0)
(0.928854 -8.16256e-15 0)
(0.928458 -1.12358e-14 0)
(0.927853 -1.1902e-14 0)
(0.927062 -1.30045e-14 0)
(0.926047 -1.00339e-14 0)
(0.923569 -9.22329e-15 0)
(0.911695 -7.55904e-15 0)
(0.845957 -5.27972e-15 0)
(0.574467 -2.29225e-15 0)
(0.126255 7.43246e-16 0)
(0.00304635 6.29317e-16 0)
(5.48504e-06 1.43113e-16 0)
(5.32238e-10 0 0)
(1.3435e-14 2.38524e-17 0)
(-4.2742e-16 2.91649e-16 0)
(-3.99466e-16 2.41776e-16 0)
(-3.98096e-16 1.50704e-16 0)
(-2.62376e-16 2.39608e-16 0)
(0 0 0)
(2.39811e-16 0 0)
(3.23993e-16 1.38777e-16 0)
(1.03485e-16 3.44775e-16 0)
(-1.21655e-16 1.30104e-16 0)
(-3.24596e-16 2.68881e-16 0)
(-3.37037e-16 5.42099e-17 0)
(-7.62444e-17 0 0)
(-2.54678e-18 0 0)
(2.53977e-16 0 0)
(5.5885e-16 0 0)
(2.05511e-16 0 0)
(-1.35922e-16 0 0)
(6.46005e-17 0 0)
(7.98231e-17 1.30104e-16 0)
(2.58733e-16 3.55617e-16 0)
(1.49881e-12 1.8865e-16 0)
(5.5879e-09 2.55437e-15 0)
(2.29023e-06 1.39428e-15 0)
(0.000145138 1.7345e-14 0)
(0.00211562 1.38244e-14 0)
(0.010896 -2.23665e-15 0)
(0.029327 3.71802e-15 0)
(0.0547873 2.26134e-14 0)
(0.0838804 1.0341e-15 0)
(0.114746 -5.89793e-15 0)
(0.146582 -7.74529e-15 0)
(0.179035 2.00911e-14 0)
(0.211922 4.36183e-15 0)
(0.245134 -1.21401e-14 0)
(0.278598 2.33521e-14 0)
(0.312266 1.97491e-14 0)
(0.346105 9.86455e-15 0)
(0.380093 2.88268e-14 0)
(0.414214 -7.41507e-15 0)
(0.448462 3.91985e-14 0)
(0.482831 2.30703e-16 0)
(0.517322 5.29453e-15 0)
(0.551936 1.16023e-14 0)
(0.586677 1.66713e-14 0)
(0.621546 -5.65912e-15 0)
(0.65654 2.30386e-14 0)
(0.69165 3.89585e-15 0)
(0.726856 6.55383e-14 0)
(0.762115 4.03e-14 0)
(0.797343 4.39001e-14 0)
(0.832346 3.34041e-14 0)
(0.86655 1.49193e-13 0)
(0.898265 -4.28413e-14 0)
(0.922909 1.26979e-15 0)
(0.933722 6.58896e-14 0)
(0.932083 6.79342e-14 0)
(0.925697 5.79768e-14 0)
(0.926952 4.53344e-14 0)
(0.927598 2.84649e-14 0)
(0.927804 1.70417e-14 0)
(0.927951 4.50327e-15 0)
(0.928143 6.40855e-15 0)
(0.928413 7.15702e-15 0)
(0.928436 8.03929e-15 0)
(0.928258 1.82281e-14 0)
(0.928177 2.11272e-14 0)
(0.928198 2.26144e-14 0)
(0.928204 2.05926e-14 0)
(0.928151 1.26508e-14 0)
(0.928071 1.03156e-14 0)
(0.927997 8.81883e-15 0)
(0.927951 2.75508e-15 0)
(0.927975 3.2515e-15 0)
(0.92814 6.61402e-15 0)
(0.928474 3.7288e-18 0)
(0.928804 -2.2354e-16 0)
(0.928582 -4.77824e-15 0)
(0.929022 -1.56295e-14 0)
(0.929166 -1.8353e-14 0)
(0.927066 -7.69961e-15 0)
(0.925953 -3.92756e-15 0)
(0.92589 -1.28033e-15 0)
(0.925954 1.44734e-15 0)
(0.92632 4.05812e-15 0)
(0.927182 4.21266e-15 0)
(0.928376 -2.75194e-16 0)
(0.928854 -2.09121e-15 0)
(0.928458 -2.69471e-15 0)
(0.927853 -3.38795e-15 0)
(0.927062 -7.02045e-15 0)
(0.926047 -2.96512e-15 0)
(0.923569 -2.61732e-15 0)
(0.911695 -4.28418e-15 0)
(0.845957 -3.38142e-15 0)
(0.574467 -6.58546e-15 0)
(0.126255 -1.38589e-15 0)
(0.00304635 1.8793e-15 0)
(5.48504e-06 -5.96306e-17 0)
(5.32238e-10 7.48097e-17 0)
(1.34621e-14 9.32411e-17 0)
(-4.40837e-16 4.14164e-16 0)
(-4.64028e-16 4.49942e-16 0)
(-5.10425e-16 3.49112e-16 0)
(-4.69458e-16 4.45605e-16 0)
(0 0 0)
(2.58959e-16 0 0)
(5.2844e-16 0 0)
(1.17568e-16 1.0842e-16 0)
(-3.56361e-16 3.44775e-16 0)
(-3.24556e-16 5.98477e-16 0)
(-3.60341e-16 2.77555e-16 0)
(-5.87972e-17 0 0)
(-1.19357e-17 0 0)
(2.56234e-16 0 0)
(5.87834e-16 0 0)
(2.28535e-16 2.1684e-18 0)
(-1.13027e-16 1.49619e-16 0)
(7.8324e-17 3.42607e-16 0)
(2.27727e-16 2.1684e-16 0)
(4.79699e-16 1.7564e-16 0)
(1.49885e-12 7.80623e-16 0)
(5.5879e-09 5.49255e-15 0)
(2.29023e-06 1.61329e-15 0)
(0.000145138 2.86936e-14 0)
(0.00211562 1.1222e-14 0)
(0.010896 -5.39028e-15 0)
(0.029327 9.47456e-15 0)
(0.0547873 2.42366e-14 0)
(0.0838804 9.52817e-15 0)
(0.114746 -6.75894e-15 0)
(0.146582 -5.96662e-15 0)
(0.179035 2.59426e-14 0)
(0.211922 8.52326e-15 0)
(0.245134 -1.82644e-14 0)
(0.278598 2.61205e-14 0)
(0.312266 1.65723e-14 0)
(0.346105 8.55562e-15 0)
(0.380093 2.46918e-14 0)
(0.414214 -3.14248e-15 0)
(0.448462 3.66061e-14 0)
(0.482831 -1.95019e-15 0)
(0.517322 6.57276e-15 0)
(0.551936 2.13644e-14 0)
(0.586677 1.76684e-14 0)
(0.621546 -2.86923e-15 0)
(0.65654 2.08351e-14 0)
(0.69165 1.84192e-14 0)
(0.726856 6.16954e-14 0)
(0.762115 1.69247e-14 0)
(0.797343 3.76986e-14 0)
(0.832346 2.65117e-14 0)
(0.86655 9.28838e-14 0)
(0.898265 -2.73842e-15 0)
(0.922909 1.85164e-14 0)
(0.933722 4.77809e-14 0)
(0.932083 4.70874e-14 0)
(0.925697 4.27513e-14 0)
(0.926952 3.41845e-14 0)
(0.927598 2.21283e-14 0)
(0.927804 1.39458e-14 0)
(0.927951 3.93309e-15 0)
(0.928143 7.25545e-15 0)
(0.928413 8.43766e-15 0)
(0.928436 5.31942e-15 0)
(0.928258 1.63354e-14 0)
(0.928177 1.88565e-14 0)
(0.928198 2.05107e-14 0)
(0.928204 1.76701e-14 0)
(0.928151 1.24453e-14 0)
(0.928071 1.04957e-14 0)
(0.927997 6.96119e-15 0)
(0.927951 1.42711e-15 0)
(0.927975 1.75548e-15 0)
(0.92814 5.13882e-15 0)
(0.928474 -2.62806e-15 0)
(0.928804 -7.50018e-16 0)
(0.928582 -1.88489e-15 0)
(0.929022 -1.18441e-14 0)
(0.929166 -9.18207e-15 0)
(0.927066 1.62642e-16 0)
(0.925953 1.64819e-15 0)
(0.92589 3.42689e-15 0)
(0.925954 4.64073e-15 0)
(0.92632 5.73437e-15 0)
(0.927182 5.44191e-15 0)
(0.928376 -2.92074e-16 0)
(0.928854 2.56165e-15 0)
(0.928458 2.46394e-15 0)
(0.927853 -8.81572e-16 0)
(0.927062 -3.11634e-15 0)
(0.926047 3.43249e-16 0)
(0.923569 1.27054e-15 0)
(0.911695 -1.79136e-15 0)
(0.845957 4.83838e-16 0)
(0.574467 -2.3855e-15 0)
(0.126255 -1.74824e-16 0)
(0.00304635 4.08732e-15 0)
(5.48504e-06 -7.67608e-16 0)
(5.32238e-10 4.7271e-16 0)
(1.3641e-14 1.02999e-16 0)
(-3.86091e-16 4.43437e-16 0)
(-5.80466e-16 6.47266e-16 0)
(-6.21004e-16 5.51857e-16 0)
(-6.79792e-16 6.51603e-16 0)
(-2.1684e-18 -2.1684e-18 0)
(2.73503e-16 -2.1684e-18 0)
(5.82945e-16 -2.1684e-18 0)
(1.75572e-16 3.90311e-17 0)
(-3.07059e-16 2.86228e-16 0)
(-6.93003e-16 2.23345e-16 0)
(-3.76635e-16 -2.1684e-18 0)
(-3.02443e-17 -2.1684e-18 0)
(-2.73665e-17 0 0)
(1.99156e-16 0 0)
(4.29677e-16 -4.33679e-18 0)
(2.57569e-16 -3.68627e-17 0)
(1.75296e-16 3.29596e-16 0)
(1.74772e-16 6.91718e-16 0)
(1.86185e-16 4.09827e-16 0)
(2.69669e-16 1.14925e-16 0)
(1.50035e-12 7.74118e-16 0)
(5.58791e-09 4.14381e-15 0)
(2.29023e-06 2.22912e-15 0)
(0.000145138 3.25213e-14 0)
(0.00211562 5.91947e-15 0)
(0.010896 -6.66837e-15 0)
(0.029327 1.26935e-14 0)
(0.0547873 1.94965e-14 0)
(0.0838804 1.05972e-14 0)
(0.114746 -6.98256e-15 0)
(0.146582 -7.39128e-15 0)
(0.179035 2.77532e-14 0)
(0.211922 1.26196e-14 0)
(0.245134 -1.87186e-14 0)
(0.278598 2.55008e-14 0)
(0.312266 1.57589e-14 0)
(0.346105 7.72161e-15 0)
(0.380093 2.36188e-14 0)
(0.414214 -2.07784e-15 0)
(0.448462 3.28766e-14 0)
(0.482831 -3.33108e-15 0)
(0.517322 7.56484e-15 0)
(0.551936 2.69682e-14 0)
(0.586677 1.58314e-14 0)
(0.621546 8.66057e-16 0)
(0.65654 1.87556e-14 0)
(0.69165 2.56688e-14 0)
(0.726856 5.44304e-14 0)
(0.762115 7.90699e-15 0)
(0.797343 3.61544e-14 0)
(0.832346 1.30244e-14 0)
(0.86655 6.86191e-14 0)
(0.898265 1.07943e-14 0)
(0.922909 1.83049e-14 0)
(0.933722 3.56433e-14 0)
(0.932083 3.60491e-14 0)
(0.925697 3.76945e-14 0)
(0.926952 2.97244e-14 0)
(0.927598 2.0859e-14 0)
(0.927804 1.32225e-14 0)
(0.927951 6.77798e-15 0)
(0.928143 1.01526e-14 0)
(0.928413 8.62102e-15 0)
(0.928436 5.3818e-15 0)
(0.928258 1.11613e-14 0)
(0.928177 1.43695e-14 0)
(0.928198 1.99285e-14 0)
(0.928204 1.54485e-14 0)
(0.928151 8.37218e-15 0)
(0.928071 9.18509e-15 0)
(0.927997 9.79898e-15 0)
(0.927951 3.88019e-15 0)
(0.927975 4.12657e-15 0)
(0.92814 3.84801e-15 0)
(0.928474 -2.36928e-15 0)
(0.928804 2.38564e-15 0)
(0.928582 2.70177e-15 0)
(0.929022 -5.49946e-15 0)
(0.929166 -4.05544e-16 0)
(0.927066 -1.76752e-15 0)
(0.925953 4.65752e-15 0)
(0.92589 4.98293e-15 0)
(0.925954 5.12918e-15 0)
(0.92632 6.90014e-15 0)
(0.927182 8.03574e-15 0)
(0.928376 5.40056e-15 0)
(0.928854 7.17212e-15 0)
(0.928458 5.2674e-15 0)
(0.927853 1.40531e-15 0)
(0.927062 1.17782e-15 0)
(0.926047 2.35473e-15 0)
(0.923569 2.1788e-15 0)
(0.911695 -1.0212e-15 0)
(0.845957 6.10791e-16 0)
(0.574467 -1.3646e-15 0)
(0.126255 -7.91103e-17 0)
(0.00304635 1.42191e-15 0)
(5.48504e-06 1.65665e-15 0)
(5.32238e-10 1.06143e-15 0)
(1.37005e-14 4.62953e-16 0)
(-2.28848e-16 3.27428e-16 0)
(-4.67528e-16 4.08743e-16 0)
(-7.47698e-16 3.0466e-16 0)
(-9.41084e-16 3.96817e-16 0)
(-2.1684e-18 2.1684e-18 0)
(2.89476e-16 2.1684e-18 0)
(6.28471e-16 2.1684e-18 0)
(1.85377e-16 1.6263e-16 0)
(-6.41051e-16 -1.60461e-16 0)
(-6.71465e-16 -5.44268e-16 0)
(-3.23876e-16 -2.40692e-16 0)
(1.16195e-17 2.1684e-18 0)
(-3.54264e-17 0 0)
(2.12675e-16 -2.1684e-18 0)
(4.55333e-16 1.27935e-16 0)
(2.72373e-16 3.05744e-16 0)
(3.65012e-16 1.43114e-16 0)
(1.81693e-16 3.25259e-16 0)
(5.7582e-17 1.43114e-16 0)
(4.10382e-16 1.10588e-16 0)
(1.50064e-12 4.94394e-16 0)
(5.58791e-09 2.56088e-15 0)
(2.29023e-06 -3.38271e-16 0)
(0.000145138 3.01314e-14 0)
(0.00211562 -3.19543e-15 0)
(0.010896 -4.02247e-15 0)
(0.029327 1.16731e-14 0)
(0.0547873 1.39283e-14 0)
(0.0838804 1.15999e-14 0)
(0.114746 -6.051e-15 0)
(0.146582 -8.19519e-15 0)
(0.179035 2.61576e-14 0)
(0.211922 1.39651e-14 0)
(0.245134 -2.04751e-14 0)
(0.278598 2.07575e-14 0)
(0.312266 9.91295e-15 0)
(0.346105 5.14334e-15 0)
(0.380093 2.04738e-14 0)
(0.414214 -3.45735e-15 0)
(0.448462 2.89928e-14 0)
(0.482831 -5.9684e-15 0)
(0.517322 6.40313e-15 0)
(0.551936 3.06469e-14 0)
(0.586677 1.30804e-14 0)
(0.621546 4.3029e-15 0)
(0.65654 1.35431e-14 0)
(0.69165 2.73618e-14 0)
(0.726856 4.23242e-14 0)
(0.762115 6.34137e-15 0)
(0.797343 2.95403e-14 0)
(0.832346 5.5523e-15 0)
(0.86655 5.65502e-14 0)
(0.898265 1.23482e-14 0)
(0.922909 1.83138e-14 0)
(0.933722 2.87496e-14 0)
(0.932083 2.62271e-14 0)
(0.925697 2.7731e-14 0)
(0.926952 2.11346e-14 0)
(0.927598 1.73549e-14 0)
(0.927804 1.23777e-14 0)
(0.927951 7.97881e-15 0)
(0.928143 1.12891e-14 0)
(0.928413 6.62381e-15 0)
(0.928436 3.7784e-15 0)
(0.928258 8.04826e-15 0)
(0.928177 1.42223e-14 0)
(0.928198 1.8341e-14 0)
(0.928204 1.04271e-14 0)
(0.928151 7.75917e-15 0)
(0.928071 4.98909e-15 0)
(0.927997 7.98626e-15 0)
(0.927951 6.83194e-15 0)
(0.927975 3.09909e-15 0)
(0.92814 2.63843e-15 0)
(0.928474 -4.12779e-15 0)
(0.928804 5.89428e-15 0)
(0.928582 4.75048e-15 0)
(0.929022 -3.91983e-15 0)
(0.929166 9.52701e-15 0)
(0.927066 -5.78432e-15 0)
(0.925953 4.51708e-15 0)
(0.92589 9.44427e-16 0)
(0.925954 3.34096e-15 0)
(0.92632 6.93866e-15 0)
(0.927182 9.66842e-15 0)
(0.928376 6.00721e-15 0)
(0.928854 9.05186e-15 0)
(0.928458 8.96944e-15 0)
(0.927853 5.22205e-15 0)
(0.927062 6.26791e-15 0)
(0.926047 3.62251e-15 0)
(0.923569 2.33998e-15 0)
(0.911695 1.58681e-15 0)
(0.845957 1.21613e-15 0)
(0.574467 -6.35678e-16 0)
(0.126255 -1.43571e-16 0)
(0.00304635 -3.3423e-15 0)
(5.48504e-06 5.3841e-15 0)
(5.32237e-10 1.94071e-15 0)
(1.3398e-14 7.15571e-16 0)
(-4.71345e-16 1.94071e-16 0)
(-6.53857e-16 -1.02999e-16 0)
(-9.37729e-16 -4.33679e-17 0)
(-1.12973e-15 -1.72388e-16 0)
(1.30104e-17 0 0)
(2.86119e-16 -3.25259e-17 0)
(3.59146e-16 -2.79723e-16 0)
(-1.08869e-16 -5.2692e-16 0)
(-7.22628e-16 -6.31003e-16 0)
(-3.7643e-16 -2.8406e-16 0)
(-2.40576e-17 -2.1684e-17 0)
(8.52265e-17 0 0)
(-2.80772e-17 0 0)
(2.26098e-16 9.54094e-17 0)
(4.84376e-16 4.01153e-16 0)
(2.75041e-16 6.00646e-16 0)
(-1.03847e-17 3.07912e-16 0)
(4.54536e-17 -5.20415e-17 0)
(1.85388e-16 -6.50519e-17 0)
(4.73149e-16 -1.12757e-16 0)
(1.50169e-12 3.49112e-16 0)
(5.58791e-09 1.52438e-15 0)
(2.29023e-06 -2.51968e-15 0)
(0.000145138 2.30117e-14 0)
(0.00211562 -6.13669e-15 0)
(0.010896 -2.44893e-15 0)
(0.029327 1.17865e-14 0)
(0.0547873 8.63053e-15 0)
(0.0838804 8.61635e-15 0)
(0.114746 -2.7648e-15 0)
(0.146582 -1.0146e-14 0)
(0.179035 2.18524e-14 0)
(0.211922 1.09384e-14 0)
(0.245134 -1.82778e-14 0)
(0.278598 1.86847e-14 0)
(0.312266 4.80503e-15 0)
(0.346105 3.6468e-15 0)
(0.380093 1.91771e-14 0)
(0.414214 -3.90316e-15 0)
(0.448462 2.36713e-14 0)
(0.482831 -5.55346e-15 0)
(0.517322 6.2592e-15 0)
(0.551936 3.10521e-14 0)
(0.586677 9.3058e-15 0)
(0.621546 6.76318e-15 0)
(0.65654 9.00532e-15 0)
(0.69165 2.41605e-14 0)
(0.726856 3.14001e-14 0)
(0.762115 7.28571e-15 0)
(0.797343 1.90517e-14 0)
(0.832346 7.09371e-15 0)
(0.86655 4.69806e-14 0)
(0.898265 1.06103e-14 0)
(0.922909 1.91114e-14 0)
(0.933722 2.39847e-14 0)
(0.932083 2.09922e-14 0)
(0.925697 1.89818e-14 0)
(0.926952 1.66846e-14 0)
(0.927598 1.40261e-14 0)
(0.927804 1.02863e-14 0)
(0.927951 5.90233e-15 0)
(0.928143 8.46676e-15 0)
(0.928413 2.12867e-15 0)
(0.928436 2.47226e-15 0)
(0.928258 5.40272e-15 0)
(0.928177 1.47286e-14 0)
(0.928198 1.61414e-14 0)
(0.928204 7.35043e-15 0)
(0.928151 7.54285e-15 0)
(0.928071 2.99855e-15 0)
(0.927997 4.467e-15 0)
(0.927951 5.687e-15 0)
(0.927975 1.19922e-15 0)
(0.92814 3.63398e-15 0)
(0.928474 -2.00535e-15 0)
(0.928804 6.21513e-15 0)
(0.928582 5.8986e-15 0)
(0.929022 -3.16265e-15 0)
(0.929166 9.82246e-15 0)
(0.927066 -3.15742e-15 0)
(0.925953 1.66928e-15 0)
(0.92589 4.37235e-17 0)
(0.925954 5.65053e-16 0)
(0.92632 5.4365e-15 0)
(0.927182 8.98357e-15 0)
(0.928376 4.93917e-15 0)
(0.928854 7.52508e-15 0)
(0.928458 8.60898e-15 0)
(0.927853 3.34916e-15 0)
(0.927062 6.90404e-15 0)
(0.926047 1.48435e-15 0)
(0.923569 3.17302e-15 0)
(0.911695 2.3048e-15 0)
(0.845957 2.58973e-15 0)
(0.574467 1.77704e-15 0)
(0.126255 1.94357e-16 0)
(0.00304635 -3.96621e-15 0)
(5.48504e-06 2.71482e-15 0)
(5.32235e-10 1.07444e-15 0)
(1.33815e-14 4.32595e-16 0)
(-7.35085e-16 -3.46943e-17 0)
(-9.0367e-16 -2.39608e-16 0)
(-8.01486e-16 -2.21176e-16 0)
(-9.04221e-16 -3.24175e-16 0)
(7.58939e-17 0 0)
(3.33985e-16 -2.40692e-16 0)
(2.64847e-17 -6.11488e-16 0)
(-1.83038e-16 -9.93126e-16 0)
(-3.87e-16 -7.8496e-16 0)
(-5.01585e-17 -3.98985e-16 0)
(2.76919e-16 -2.60208e-17 0)
(2.03749e-16 3.90311e-17 0)
(1.86759e-18 0 0)
(2.39113e-16 0 0)
(4.3258e-16 1.34441e-16 0)
(4.58024e-17 3.10081e-16 0)
(-2.58953e-16 4.77047e-17 0)
(-3.21627e-17 -5.20415e-17 0)
(5.2578e-17 0 0)
(2.78291e-16 -9.97462e-17 0)
(1.50219e-12 1.23599e-16 0)
(5.58791e-09 -2.38524e-16 0)
(2.29023e-06 -1.68268e-15 0)
(0.000145138 7.0243e-15 0)
(0.00211562 -2.1549e-15 0)
(0.010896 1.56478e-15 0)
(0.029327 9.65352e-15 0)
(0.0547873 9.14736e-15 0)
(0.0838804 1.63849e-15 0)
(0.114746 1.66223e-15 0)
(0.146582 -1.19222e-14 0)
(0.179035 2.01202e-14 0)
(0.211922 7.44582e-15 0)
(0.245134 -1.44432e-14 0)
(0.278598 1.90256e-14 0)
(0.312266 3.86934e-15 0)
(0.346105 2.66475e-15 0)
(0.380093 1.98844e-14 0)
(0.414214 -2.77929e-15 0)
(0.448462 1.70953e-14 0)
(0.482831 -3.19166e-15 0)
(0.517322 5.53441e-15 0)
(0.551936 2.64975e-14 0)
(0.586677 6.60326e-15 0)
(0.621546 7.63868e-15 0)
(0.65654 8.39221e-15 0)
(0.69165 2.16316e-14 0)
(0.726856 2.3142e-14 0)
(0.762115 1.18551e-14 0)
(0.797343 1.1703e-14 0)
(0.832346 1.25222e-14 0)
(0.86655 3.73379e-14 0)
(0.898265 4.54303e-15 0)
(0.922909 1.89e-14 0)
(0.933722 2.51118e-14 0)
(0.932083 2.25612e-14 0)
(0.925697 1.63753e-14 0)
(0.926952 1.3471e-14 0)
(0.927598 1.25888e-14 0)
(0.927804 6.3183e-15 0)
(0.927951 5.21696e-15 0)
(0.928143 6.202e-15 0)
(0.928413 2.78571e-15 0)
(0.928436 6.06511e-15 0)
(0.928258 4.93964e-15 0)
(0.928177 1.17142e-14 0)
(0.928198 1.15486e-14 0)
(0.928204 7.82056e-15 0)
(0.928151 6.19753e-15 0)
(0.928071 4.03751e-15 0)
(0.927997 3.20419e-15 0)
(0.927951 5.50592e-15 0)
(0.927975 2.01993e-15 0)
(0.92814 3.30841e-15 0)
(0.928474 2.3402e-15 0)
(0.928804 5.17073e-15 0)
(0.928582 5.69942e-15 0)
(0.929022 -2.28701e-16 0)
(0.929166 5.79479e-15 0)
(0.927066 2.45605e-15 0)
(0.925953 2.06229e-15 0)
(0.92589 9.51114e-16 0)
(0.925954 8.97709e-16 0)
(0.92632 3.5307e-15 0)
(0.927182 6.76959e-15 0)
(0.928376 4.84915e-15 0)
(0.928854 5.59528e-15 0)
(0.928458 6.84553e-15 0)
(0.927853 2.92241e-15 0)
(0.927062 4.7659e-15 0)
(0.926047 1.67538e-15 0)
(0.923569 2.13479e-15 0)
(0.911695 2.05221e-15 0)
(0.845957 1.8558e-15 0)
(0.574467 6.2615e-16 0)
(0.126255 -7.37386e-16 0)
(0.00304635 -8.98561e-16 0)
(5.48504e-06 -4.33677e-18 0)
(5.32235e-10 7.04729e-17 0)
(1.31849e-14 1.9624e-16 0)
(-7.90599e-16 1.02999e-16 0)
(-7.91486e-16 -4.11995e-17 0)
(-6.90914e-16 -2.7105e-17 0)
(-6.98224e-16 -1.16009e-16 0)
(4.61868e-16 1.99492e-16 0)
(4.46083e-16 0 0)
(1.65736e-17 -2.58039e-16 0)
(-1.44192e-16 -6.26667e-16 0)
(-1.11154e-16 -4.0549e-16 0)
(1.04999e-16 -5.42099e-17 0)
(4.36648e-16 2.66713e-16 0)
(2.38972e-16 4.64037e-16 0)
(3.80184e-17 2.99239e-16 0)
(2.78095e-16 9.10727e-17 0)
(4.45995e-16 0 0)
(7.99106e-17 0 0)
(-2.9086e-16 0 0)
(-5.17051e-17 -7.37255e-17 0)
(4.75598e-17 0 0)
(2.92462e-16 9.97462e-17 0)
(1.50224e-12 1.27935e-16 0)
(5.58791e-09 -1.46367e-15 0)
(2.29023e-06 -2.38741e-15 0)
(0.000145138 -2.71517e-15 0)
(0.00211562 -2.74359e-15 0)
(0.010896 6.97695e-15 0)
(0.029327 6.20226e-15 0)
(0.0547873 7.72977e-15 0)
(0.0838804 -5.2101e-15 0)
(0.114746 8.45824e-15 0)
(0.146582 -1.32227e-14 0)
(0.179035 1.79656e-14 0)
(0.211922 3.72421e-15 0)
(0.245134 -1.24616e-14 0)
(0.278598 1.88379e-14 0)
(0.312266 3.14268e-15 0)
(0.346105 2.7395e-15 0)
(0.380093 1.99992e-14 0)
(0.414214 1.71465e-17 0)
(0.448462 1.18879e-14 0)
(0.482831 -1.50538e-15 0)
(0.517322 5.7246e-15 0)
(0.551936 1.99718e-14 0)
(0.586677 4.40614e-15 0)
(0.621546 8.5803e-15 0)
(0.65654 7.81522e-15 0)
(0.69165 1.84646e-14 0)
(0.726856 1.48056e-14 0)
(0.762115 1.57643e-14 0)
(0.797343 1.62137e-15 0)
(0.832346 1.89794e-14 0)
(0.86655 2.92704e-14 0)
(0.898265 -7.67053e-16 0)
(0.922909 2.2327e-14 0)
(0.933722 2.49016e-14 0)
(0.932083 2.15113e-14 0)
(0.925697 1.53154e-14 0)
(0.926952 1.22556e-14 0)
(0.927598 9.64155e-15 0)
(0.927804 4.21676e-15 0)
(0.927951 5.02605e-15 0)
(0.928143 5.97953e-15 0)
(0.928413 3.78049e-15 0)
(0.928436 7.59786e-15 0)
(0.928258 5.47714e-15 0)
(0.928177 1.05242e-14 0)
(0.928198 7.22148e-15 0)
(0.928204 7.10218e-15 0)
(0.928151 3.96054e-15 0)
(0.928071 5.00248e-15 0)
(0.927997 2.95651e-15 0)
(0.927951 6.40283e-15 0)
(0.927975 3.60933e-15 0)
(0.92814 1.92627e-15 0)
(0.928474 9.67252e-16 0)
(0.928804 3.40399e-15 0)
(0.928582 3.15207e-15 0)
(0.929022 3.33623e-15 0)
(0.929166 3.09991e-15 0)
(0.927066 5.28049e-15 0)
(0.925953 2.37094e-15 0)
(0.92589 2.38679e-15 0)
(0.925954 2.89159e-15 0)
(0.92632 2.98684e-15 0)
(0.927182 3.29252e-15 0)
(0.928376 4.3361e-15 0)
(0.928854 3.4295e-15 0)
(0.928458 4.29734e-15 0)
(0.927853 3.15773e-15 0)
(0.927062 2.72016e-15 0)
(0.926047 1.62175e-15 0)
(0.923569 1.75562e-15 0)
(0.911695 1.75882e-15 0)
(0.845957 1.43244e-15 0)
(0.574467 1.30403e-15 0)
(0.126255 -8.78026e-16 0)
(0.00304635 1.90093e-15 0)
(5.48504e-06 -7.40504e-16 0)
(5.32236e-10 -4.56447e-16 0)
(1.34744e-14 -4.11995e-17 0)
(-7.71602e-16 2.78639e-16 0)
(-9.66685e-16 2.01661e-16 0)
(-8.64277e-16 2.98155e-16 0)
(-8.26159e-16 2.38524e-16 0)
(8.69527e-16 4.87889e-16 0)
(5.96518e-16 1.84314e-16 0)
(-4.34006e-18 1.19262e-16 0)
(-3.07317e-16 -2.36355e-16 0)
(-1.6405e-16 2.1684e-18 0)
(2.73226e-16 1.56125e-16 0)
(5.02276e-16 5.91972e-16 0)
(2.45619e-16 8.45675e-16 0)
(3.59242e-17 6.39677e-16 0)
(2.86749e-16 3.40438e-16 0)
(3.72666e-16 1.58293e-16 0)
(5.8598e-17 -1.58293e-16 0)
(-2.56412e-16 -8.67359e-17 0)
(-7.28415e-17 -2.68881e-16 0)
(1.45401e-16 -1.0842e-17 0)
(4.59373e-16 1.30104e-17 0)
(1.50198e-12 2.01661e-16 0)
(5.58791e-09 -3.47377e-15 0)
(2.29023e-06 -3.26561e-15 0)
(0.000145138 -9.00212e-15 0)
(0.00211562 -8.36328e-16 0)
(0.010896 5.70324e-15 0)
(0.029327 2.92773e-15 0)
(0.0547873 6.21448e-15 0)
(0.0838804 -1.11608e-14 0)
(0.114746 1.1595e-14 0)
(0.146582 -1.07876e-14 0)
(0.179035 1.68947e-14 0)
(0.211922 9.36908e-16 0)
(0.245134 -7.6316e-15 0)
(0.278598 1.98274e-14 0)
(0.312266 1.89272e-15 0)
(0.346105 4.00298e-15 0)
(0.380093 2.16133e-14 0)
(0.414214 4.06371e-15 0)
(0.448462 9.31797e-15 0)
(0.482831 1.57675e-15 0)
(0.517322 8.87733e-15 0)
(0.551936 1.30444e-14 0)
(0.586677 1.83886e-15 0)
(0.621546 9.25935e-15 0)
(0.65654 7.46278e-15 0)
(0.69165 1.57954e-14 0)
(0.726856 9.18329e-15 0)
(0.762115 1.86816e-14 0)
(0.797343 -6.62862e-15 0)
(0.832346 2.36013e-14 0)
(0.86655 2.40277e-14 0)
(0.898265 -3.75374e-15 0)
(0.922909 2.70238e-14 0)
(0.933722 2.35598e-14 0)
(0.932083 1.93654e-14 0)
(0.925697 1.23071e-14 0)
(0.926952 9.8325e-15 0)
(0.927598 6.35149e-15 0)
(0.927804 4.97156e-16 0)
(0.927951 6.61889e-15 0)
(0.928143 5.17115e-15 0)
(0.928413 5.82289e-15 0)
(0.928436 1.03877e-14 0)
(0.928258 7.23405e-15 0)
(0.928177 1.05591e-14 0)
(0.928198 3.29292e-15 0)
(0.928204 6.51889e-15 0)
(0.928151 3.6911e-15 0)
(0.928071 6.51085e-15 0)
(0.927997 2.8455e-15 0)
(0.927951 5.52153e-15 0)
(0.927975 6.16151e-15 0)
(0.92814 -5.36819e-17 0)
(0.928474 1.06681e-15 0)
(0.928804 2.89502e-15 0)
(0.928582 1.46368e-15 0)
(0.929022 6.98771e-15 0)
(0.929166 2.0353e-15 0)
(0.927066 6.19888e-15 0)
(0.925953 1.93472e-15 0)
(0.92589 4.80804e-15 0)
(0.925954 4.62531e-15 0)
(0.92632 1.65108e-15 0)
(0.927182 2.03508e-16 0)
(0.928376 3.41077e-15 0)
(0.928854 8.08594e-16 0)
(0.928458 2.19284e-15 0)
(0.927853 5.5028e-16 0)
(0.927062 9.10294e-16 0)
(0.926047 1.03434e-15 0)
(0.923569 4.9225e-16 0)
(0.911695 8.76567e-16 0)
(0.845957 1.20959e-15 0)
(0.574467 4.36331e-15 0)
(0.126255 -1.45231e-15 0)
(0.00304635 6.68568e-15 0)
(5.48504e-06 -2.23561e-15 0)
(5.32236e-10 -1.5092e-15 0)
(1.37208e-14 -2.62376e-16 0)
(-6.17172e-16 1.10588e-16 0)
(-9.23361e-16 4.08743e-16 0)
(-9.73216e-16 5.44268e-16 0)
(-1.07444e-15 4.87889e-16 0)
(1.11022e-15 2.40692e-16 0)
(6.74407e-16 1.04083e-16 0)
(1.27515e-17 1.34441e-16 0)
(-3.25209e-16 2.77555e-16 0)
(3.35051e-18 1.0842e-16 0)
(4.18986e-16 2.79723e-16 0)
(6.86856e-16 4.09827e-16 0)
(3.04079e-16 4.98731e-16 0)
(-1.46979e-16 4.53195e-16 0)
(3.10409e-16 2.7105e-16 0)
(3.56521e-18 -4.11995e-17 0)
(-1.8107e-16 -2.68881e-16 0)
(-2.27969e-16 -2.1684e-17 0)
(-4.41106e-17 9.97462e-17 0)
(2.6562e-16 2.81892e-17 0)
(2.61713e-16 -1.66967e-16 0)
(1.50227e-12 -2.68881e-16 0)
(5.58791e-09 -1.39428e-15 0)
(2.29023e-06 -2.36356e-15 0)
(0.000145138 -9.0932e-15 0)
(0.00211562 -3.03902e-15 0)
(0.010896 1.71797e-15 0)
(0.029327 2.95774e-15 0)
(0.0547873 5.83736e-15 0)
(0.0838804 -1.35691e-14 0)
(0.114746 1.21175e-14 0)
(0.146582 -7.80184e-15 0)
(0.179035 1.20989e-14 0)
(0.211922 1.95189e-16 0)
(0.245134 -3.22762e-15 0)
(0.278598 1.71252e-14 0)
(0.312266 -2.3179e-16 0)
(0.346105 3.82416e-15 0)
(0.380093 1.83035e-14 0)
(0.414214 4.66384e-15 0)
(0.448462 6.98928e-15 0)
(0.482831 2.36512e-15 0)
(0.517322 1.20763e-14 0)
(0.551936 5.40037e-15 0)
(0.586677 1.06201e-15 0)
(0.621546 8.3678e-15 0)
(0.65654 6.26682e-15 0)
(0.69165 1.03711e-14 0)
(0.726856 5.12318e-15 0)
(0.762115 1.93645e-14 0)
(0.797343 -7.96821e-15 0)
(0.832346 2.70683e-14 0)
(0.86655 1.6901e-14 0)
(0.898265 -1.75891e-15 0)
(0.922909 2.20561e-14 0)
(0.933722 2.35029e-14 0)
(0.932083 1.9843e-14 0)
(0.925697 1.25433e-14 0)
(0.926952 8.62445e-15 0)
(0.927598 6.78425e-15 0)
(0.927804 3.20177e-15 0)
(0.927951 8.78477e-15 0)
(0.928143 4.18898e-15 0)
(0.928413 6.45701e-15 0)
(0.928436 9.12011e-15 0)
(0.928258 7.22928e-15 0)
(0.928177 6.75007e-15 0)
(0.928198 3.51508e-15 0)
(0.928204 6.31004e-15 0)
(0.928151 3.97295e-15 0)
(0.928071 6.48278e-15 0)
(0.927997 3.53241e-15 0)
(0.927951 2.2564e-15 0)
(0.927975 6.30591e-15 0)
(0.92814 6.30239e-16 0)
(0.928474 1.54895e-15 0)
(0.928804 1.41046e-15 0)
(0.928582 -4.27915e-16 0)
(0.929022 7.02494e-15 0)
(0.929166 -4.40392e-16 0)
(0.927066 5.74225e-15 0)
(0.925953 3.58805e-15 0)
(0.92589 5.13725e-15 0)
(0.925954 4.53533e-15 0)
(0.92632 2.02136e-15 0)
(0.927182 3.75746e-16 0)
(0.928376 3.83482e-15 0)
(0.928854 1.06144e-15 0)
(0.928458 2.67531e-16 0)
(0.927853 -9.74987e-17 0)
(0.927062 1.00832e-15 0)
(0.926047 1.03894e-15 0)
(0.923569 -3.1111e-16 0)
(0.911695 2.79964e-16 0)
(0.845957 5.88451e-16 0)
(0.574467 2.92997e-15 0)
(0.126255 -8.90723e-16 0)
(0.00304635 3.16605e-15 0)
(5.48504e-06 -1.39861e-15 0)
(5.32238e-10 -9.77947e-16 0)
(1.37687e-14 -2.04913e-16 0)
(-4.17451e-16 -1.45283e-16 0)
(-7.44336e-16 2.33103e-16 0)
(-1.02665e-15 3.39354e-16 0)
(-1.25659e-15 3.61038e-16 0)
(8.93379e-16 2.1684e-18 0)
(5.59164e-16 2.55871e-16 0)
(8.55065e-17 3.03576e-16 0)
(1.28028e-18 5.98477e-16 0)
(2.16447e-16 3.88143e-16 0)
(4.39683e-16 5.48604e-16 0)
(4.22712e-16 3.88143e-16 0)
(1.72629e-16 1.40946e-16 0)
(1.07646e-16 1.99492e-16 0)
(-8.33183e-17 -1.27935e-16 0)
(-3.26288e-16 -3.79469e-16 0)
(-7.24486e-17 -1.32272e-16 0)
(-2.31215e-16 2.14671e-16 0)
(-3.36228e-17 4.7271e-16 0)
(2.19347e-16 2.21176e-16 0)
(2.38768e-16 1.30104e-17 0)
(1.50156e-12 -8.67359e-18 0)
(5.58791e-09 1.9624e-15 0)
(2.29023e-06 -1.67617e-15 0)
(0.000145138 8.15417e-16 0)
(0.00211562 -1.22082e-15 0)
(0.010896 -7.72542e-16 0)
(0.029327 2.89328e-15 0)
(0.0547873 8.59986e-15 0)
(0.0838804 -1.14508e-14 0)
(0.114746 1.55161e-14 0)
(0.146582 -3.52908e-15 0)
(0.179035 4.81731e-15 0)
(0.211922 1.60836e-15 0)
(0.245134 1.73506e-15 0)
(0.278598 1.25958e-14 0)
(0.312266 -2.64071e-15 0)
(0.346105 3.40056e-16 0)
(0.380093 1.46446e-14 0)
(0.414214 5.92956e-15 0)
(0.448462 3.95781e-15 0)
(0.482831 2.73856e-16 0)
(0.517322 1.53096e-14 0)
(0.551936 1.67744e-15 0)
(0.586677 1.3828e-15 0)
(0.621546 7.76335e-15 0)
(0.65654 5.91048e-15 0)
(0.69165 5.43541e-15 0)
(0.726856 -3.26856e-16 0)
(0.762115 1.91516e-14 0)
(0.797343 -8.54184e-15 0)
(0.832346 2.99429e-14 0)
(0.86655 6.82146e-15 0)
(0.898265 2.01336e-16 0)
(0.922909 2.20143e-14 0)
(0.933722 1.98002e-14 0)
(0.932083 1.62681e-14 0)
(0.925697 1.07813e-14 0)
(0.926952 7.36079e-15 0)
(0.927598 6.00204e-15 0)
(0.927804 5.14364e-15 0)
(0.927951 7.9979e-15 0)
(0.928143 5.14919e-15 0)
(0.928413 7.76025e-15 0)
(0.928436 6.15995e-15 0)
(0.928258 5.75671e-15 0)
(0.928177 1.68013e-15 0)
(0.928198 7.76971e-15 0)
(0.928204 7.34122e-15 0)
(0.928151 3.27119e-15 0)
(0.928071 4.66509e-15 0)
(0.927997 6.77478e-15 0)
(0.927951 1.69303e-15 0)
(0.927975 3.44592e-15 0)
(0.92814 4.03381e-15 0)
(0.928474 3.32759e-15 0)
(0.928804 3.34617e-15 0)
(0.928582 2.59703e-15 0)
(0.929022 2.23721e-15 0)
(0.929166 2.45852e-15 0)
(0.927066 6.41181e-15 0)
(0.925953 5.5063e-15 0)
(0.92589 5.40216e-15 0)
(0.925954 3.66847e-15 0)
(0.92632 4.60968e-15 0)
(0.927182 4.43822e-15 0)
(0.928376 3.55911e-15 0)
(0.928854 3.7605e-15 0)
(0.928458 1.95236e-15 0)
(0.927853 1.56764e-15 0)
(0.927062 3.43594e-16 0)
(0.926047 1.8797e-16 0)
(0.923569 5.51607e-16 0)
(0.911695 -1.47214e-16 0)
(0.845957 -3.13078e-15 0)
(0.574467 -2.77003e-16 0)
(0.126255 -3.65275e-16 0)
(0.00304635 -4.54146e-17 0)
(5.48504e-06 1.89625e-15 0)
(5.32237e-10 1.14491e-15 0)
(1.36258e-14 -3.32849e-16 0)
(-5.054e-16 -3.11165e-16 0)
(-7.09926e-16 4.33679e-18 0)
(-9.56274e-16 8.99885e-17 0)
(-1.15576e-15 2.58039e-16 0)
(1.07769e-15 -2.14671e-16 0)
(6.66769e-16 -9.97462e-17 0)
(1.25766e-16 -4.98731e-17 0)
(7.17386e-20 2.62376e-16 0)
(3.45108e-16 2.08166e-16 0)
(6.64781e-16 2.51534e-16 0)
(3.4067e-16 -7.15571e-17 0)
(1.63417e-16 -3.96817e-16 0)
(-1.58532e-16 -2.73218e-16 0)
(-4.17216e-16 -5.09573e-16 0)
(-7.88624e-17 -1.71303e-16 0)
(1.9185e-16 1.32272e-16 0)
(-5.68233e-17 2.38524e-17 0)
(-2.67143e-16 2.47197e-16 0)
(-9.14203e-17 -4.33679e-18 0)
(2.09557e-16 -9.32411e-17 0)
(1.50265e-12 2.21176e-16 0)
(5.58791e-09 2.98371e-15 0)
(2.29023e-06 -9.38918e-16 0)
(0.000145138 1.40963e-15 0)
(0.00211562 1.93333e-16 0)
(0.010896 -1.82083e-15 0)
(0.029327 -1.14042e-15 0)
(0.0547873 8.94404e-15 0)
(0.0838804 -1.14683e-14 0)
(0.114746 1.52375e-14 0)
(0.146582 -2.33551e-16 0)
(0.179035 -7.28285e-16 0)
(0.211922 1.90505e-15 0)
(0.245134 6.18728e-15 0)
(0.278598 7.89534e-15 0)
(0.312266 -3.40007e-15 0)
(0.346105 5.99495e-16 0)
(0.380093 9.67996e-15 0)
(0.414214 8.34877e-15 0)
(0.448462 2.03921e-15 0)
(0.482831 1.42737e-15 0)