/*--------------------------------*- C++ -*----------------------------------*\
| =========                 |                                                 |
| \\      /  F ield         | OpenFOAM: The Open Source CFD Toolbox           |
|  \\    /   O peration     | Version:  4.1                                   |
|   \\  /    A nd           | Web:      www.OpenFOAM.org                      |
|    \\/     M anipulation  |                                                 |
\*---------------------------------------------------------------------------*/
FoamFile
{
    version     2.0;
    format      ascii;
    class       volVectorField;
    location    "0.2";
    object      U;
}
// * * * * * * * * * * * * * * * * * * * * * * * * * * * * * * * * * * * * * //

dimensions      [0 1 -1 0 0 0 0];

internalField   nonuniform List<vector> 
10000
(
(0 0 0)
(9.5564e-17 0 0)
(2.52766e-16 0 0)
(6.59243e-17 1.34441e-16 0)
(-1.08112e-16 0 0)
(-1.6976e-16 0 0)
(-1.87464e-16 0 0)
(-2.67718e-17 0 0)
(-7.91784e-27 0 0)
(1.43075e-16 1.30104e-16 0)
(3.66219e-16 0 0)
(5.22556e-17 -1.51788e-16 0)
(-2.87587e-16 0 0)
(-2.32831e-18 0 0)
(1.56988e-16 0 0)
(-3.03547e-17 1.27935e-16 0)
(-2.19431e-16 0 0)
(-7.38563e-17 0 0)
(-6.6161e-18 0 0)
(-7.82942e-17 0 0)
(2.98149e-19 0 0)
(4.4625e-17 1.04083e-16 0)
(1.28279e-17 0 0)
(9.34199e-17 0 0)
(-4.98331e-17 0 0)
(-2.00985e-16 0 0)
(-3.12465e-16 -1.17093e-16 0)
(-2.63137e-17 8.67359e-17 0)
(2.81869e-16 0 0)
(4.81227e-17 1.36609e-16 0)
(-1.79862e-16 0 0)
(1.10318e-15 -2.9707e-16 0)
(2.30866e-11 -3.44775e-16 0)
(5.73261e-08 -1.51788e-16 0)
(1.60337e-05 3.39359e-15 0)
(0.000722618 5.64128e-15 0)
(0.00798043 -5.46653e-15 0)
(0.033723 4.05125e-15 0)
(0.0803067 3.08052e-15 0)
(0.139951 1.96272e-14 0)
(0.206041 2.23041e-14 0)
(0.27543 1.87018e-14 0)
(0.346796 1.0647e-14 0)
(0.419581 1.43916e-14 0)
(0.49357 1.56535e-14 0)
(0.568768 4.36883e-15 0)
(0.645178 -1.1473e-14 0)
(0.72262 -1.0317e-14 0)
(0.799905 1.58841e-14 0)
(0.872224 1.04425e-14 0)
(0.926473 3.74538e-15 0)
(0.943094 5.07003e-15 0)
(0.923268 4.28655e-15 0)
(0.92517 6.15412e-15 0)
(0.926852 4.11105e-15 0)
(0.927464 3.77206e-15 0)
(0.927912 3.79467e-15 0)
(0.928241 3.39352e-15 0)
(0.929012 5.63732e-15 0)
(0.931881 3.3455e-15 0)
(0.929087 4.14934e-15 0)
(0.918371 4.14613e-15 0)
(0.928127 2.79063e-15 0)
(0.936677 2.45921e-15 0)
(0.940029 -4.61136e-15 0)
(0.934284 -7.64929e-15 0)
(0.881502 -8.51169e-15 0)
(0.630311 -4.4772e-15 0)
(0.157933 -1.08731e-15 0)
(0.00440027 1.76804e-15 0)
(8.94553e-06 -1.57207e-16 0)
(9.62719e-10 5.74625e-17 0)
(2.46997e-14 1.95156e-16 0)
(-7.66955e-17 5.57278e-16 0)
(-1.80806e-16 2.25513e-16 0)
(5.164e-17 0 0)
(2.63898e-16 0 0)
(6.33835e-17 0 0)
(-1.25762e-16 9.54094e-17 0)
(6.34769e-17 0 0)
(2.65023e-16 0 0)
(6.05268e-17 0 0)
(-1.41372e-16 0 0)
(5.88162e-17 0 0)
(2.47929e-16 9.75778e-17 0)
(7.17942e-17 0 0)
(-1.5031e-16 0 0)
(-4.59727e-17 0 0)
(-4.29201e-17 0 0)
(-1.35333e-16 0 0)
(-2.11585e-16 -6.50519e-18 0)
(-3.64582e-16 0 0)
(-1.56295e-16 2.1684e-17 0)
(6.35188e-17 0 0)
(2.72142e-16 0 0)
(5.85778e-17 0 0)
(-1.63293e-16 8.13149e-17 0)
(-1.75701e-16 1.0842e-18 0)
(-8.55346e-17 0 0)
(0 2.05998e-17 0)
(0 0 0)
(1.34159e-16 0 0)
(2.73765e-16 1.30104e-16 0)
(8.06882e-17 3.18754e-16 0)
(-1.31942e-16 1.25767e-16 0)
(-2.75893e-16 2.47197e-16 0)
(-2.5326e-16 4.98731e-17 0)
(-3.37003e-17 0 0)
(-8.76208e-24 0 0)
(1.65767e-16 0 0)
(4.36579e-16 0 0)
(1.08603e-16 0 0)
(-2.41768e-16 0 0)
(2.4601e-17 0 0)
(1.51474e-16 1.30104e-16 0)
(-3.91412e-17 3.12249e-16 0)
(-2.3422e-16 1.27935e-16 0)
(-1.18349e-16 0 0)
(-2.38014e-17 0 0)
(-1.55728e-16 0 0)
(5.32215e-19 0 0)
(7.45893e-17 2.1684e-18 0)
(3.01937e-17 0 0)
(1.09579e-16 1.19262e-16 0)
(-9.91707e-17 2.9707e-16 0)
(-2.94186e-16 1.01915e-16 0)
(-2.23819e-16 6.93887e-17 0)
(-1.75131e-17 2.7105e-16 0)
(1.72072e-16 8.89043e-17 0)
(5.88967e-17 0 0)
(-1.79174e-16 0 0)
(1.07128e-15 6.50519e-17 0)
(2.30862e-11 1.97324e-16 0)
(5.73261e-08 2.92734e-16 0)
(1.60337e-05 8.70406e-15 0)
(0.000722618 4.47614e-15 0)
(0.00798043 9.57952e-15 0)
(0.033723 4.40271e-15 0)
(0.0803067 2.96673e-15 0)
(0.139951 2.59389e-14 0)
(0.206041 -9.7722e-15 0)
(0.27543 2.51408e-14 0)
(0.346796 2.15333e-14 0)
(0.419581 8.63529e-16 0)
(0.49357 8.69806e-15 0)
(0.568768 5.93362e-15 0)
(0.645178 5.54177e-15 0)
(0.72262 -3.57774e-15 0)
(0.799905 9.10723e-15 0)
(0.872224 1.04221e-14 0)
(0.926473 7.66408e-15 0)
(0.943094 6.62111e-15 0)
(0.923268 2.67755e-15 0)
(0.92517 7.57628e-15 0)
(0.926852 4.60867e-15 0)
(0.927464 2.37303e-15 0)
(0.927912 1.97299e-15 0)
(0.928241 1.87614e-15 0)
(0.929012 2.93182e-15 0)
(0.931881 1.27297e-15 0)
(0.929087 5.82139e-15 0)
(0.918371 6.19267e-15 0)
(0.928127 4.01424e-15 0)
(0.936677 5.31918e-15 0)
(0.940029 8.96794e-16 0)
(0.934284 -1.54357e-15 0)
(0.881502 -2.92791e-15 0)
(0.630311 -1.40137e-15 0)
(0.157933 -6.06642e-15 0)
(0.00440027 4.08368e-15 0)
(8.94553e-06 -4.05487e-16 0)
(9.62719e-10 1.5504e-16 0)
(2.48306e-14 1.52872e-16 0)
(-1.38142e-16 3.07912e-16 0)
(-1.76977e-16 1.79977e-16 0)
(2.26536e-17 1.65882e-16 0)
(1.99308e-16 1.95156e-17 0)
(6.25905e-18 3.25259e-17 0)
(-1.59731e-16 1.98408e-16 0)
(1.2106e-17 2.81892e-17 0)
(2.13159e-16 0 0)
(4.39896e-17 0 0)
(-1.45808e-16 4.33679e-17 0)
(4.96376e-17 1.50704e-16 0)
(2.56125e-16 2.00577e-16 0)
(7.40831e-17 2.1684e-17 0)
(-1.76872e-16 0 0)
(-7.45479e-17 0 0)
(-7.38717e-17 0 0)
(-1.76076e-16 -6.50519e-18 0)
(-1.35344e-16 -2.81892e-17 0)
(-2.44631e-16 1.0083e-16 0)
(-1.24272e-16 2.21176e-16 0)
(6.86647e-17 5.52941e-17 0)
(2.78861e-16 0 0)
(5.6042e-17 1.95156e-17 0)
(-1.85939e-16 1.90819e-16 0)
(-2.58399e-16 2.05998e-16 0)
(-1.67613e-16 1.37693e-16 0)
(-1.20346e-16 2.32018e-16 0)
(0 0 0)
(2.06173e-16 0 0)
(5.10671e-16 0 0)
(1.04378e-16 8.89043e-17 0)
(-3.50428e-16 3.44775e-16 0)
(-3.2488e-16 5.72457e-16 0)
(-2.67169e-16 2.40692e-16 0)
(-3.25322e-17 0 0)
(-2.18529e-21 0 0)
(2.0991e-16 0 0)
(5.18888e-16 0 0)
(1.75247e-16 2.1684e-18 0)
(-1.26051e-16 2.1684e-17 0)
(9.17758e-17 2.34187e-16 0)
(3.15707e-16 8.67359e-17 0)
(-4.53327e-17 7.37255e-17 0)
(-4.06514e-16 0 0)
(-1.56546e-16 0 0)
(-6.25461e-17 1.01915e-16 0)
(-2.45011e-16 0 0)
(-1.36555e-19 0 0)
(1.72764e-16 0 0)
(6.45337e-17 8.45675e-17 0)
(1.50011e-16 3.81638e-16 0)
(-1.07057e-16 6.39677e-16 0)
(-3.90609e-16 3.53449e-16 0)
(-3.82973e-16 1.95156e-17 0)
(-3.12449e-17 4.98731e-17 0)
(3.06077e-16 0 0)
(8.09766e-17 0 0)
(-2.03973e-18 1.36609e-16 0)
(1.05912e-15 4.0549e-16 0)
(2.3087e-11 9.36747e-16 0)
(5.73261e-08 1.71086e-15 0)
(1.60337e-05 1.01938e-14 0)
(0.000722618 3.89465e-15 0)
(0.00798043 1.87552e-14 0)
(0.033723 2.72687e-15 0)
(0.0803067 -2.9737e-15 0)
(0.139951 2.82727e-14 0)
(0.206041 -2.01323e-14 0)
(0.27543 2.1374e-14 0)
(0.346796 2.26367e-14 0)
(0.419581 -7.63699e-15 0)
(0.49357 4.9478e-15 0)
(0.568768 3.86881e-15 0)
(0.645178 6.86584e-15 0)
(0.72262 -3.07823e-15 0)
(0.799905 8.19774e-15 0)
(0.872224 4.63055e-15 0)
(0.926473 2.22663e-15 0)
(0.943094 3.79317e-15 0)
(0.923268 1.4511e-15 0)
(0.92517 9.71048e-15 0)
(0.926852 4.37855e-15 0)
(0.927464 1.89119e-15 0)
(0.927912 -3.39546e-17 0)
(0.928241 8.16416e-16 0)
(0.929012 4.42216e-16 0)
(0.931881 -1.59246e-15 0)
(0.929087 3.56405e-15 0)
(0.918371 6.85749e-15 0)
(0.928127 5.41287e-15 0)
(0.936677 6.65574e-15 0)
(0.940029 4.81314e-15 0)
(0.934284 1.81022e-15 0)
(0.881502 1.61998e-15 0)
(0.630311 2.46302e-15 0)
(0.157933 -5.19353e-15 0)
(0.00440027 4.69606e-15 0)
(8.94553e-06 -7.53512e-16 0)
(9.62719e-10 2.60208e-17 0)
(2.48884e-14 2.33103e-16 0)
(-3.18433e-17 1.18178e-16 0)
(-6.30815e-17 2.19008e-16 0)
(7.24226e-17 3.53449e-16 0)
(1.82747e-16 2.53702e-16 0)
(7.90573e-18 1.37693e-16 0)
(-2.01838e-16 1.7564e-16 0)
(-6.81947e-17 2.41776e-16 0)
(1.32933e-16 2.25513e-16 0)
(1.46738e-16 1.57209e-16 0)
(4.49655e-17 2.8406e-16 0)
(1.47122e-16 3.44775e-16 0)
(1.59291e-16 1.38777e-16 0)
(-2.6873e-17 -8.02307e-17 0)
(-1.93717e-16 -2.49366e-17 0)
(-1.00739e-16 7.80623e-17 0)
(-1.12061e-16 -2.27682e-17 0)
(-2.11892e-16 8.02307e-17 0)
(-9.87678e-17 7.69781e-17 0)
(-7.71642e-17 2.68881e-16 0)
(-1.34362e-16 4.27174e-16 0)
(1.02302e-17 3.19838e-16 0)
(1.89372e-16 1.4203e-16 0)
(8.2736e-17 2.38524e-17 0)
(-1.34052e-16 2.08166e-16 0)
(-3.36383e-16 4.08743e-16 0)
(-2.34865e-16 3.20923e-16 0)
(-3.11165e-16 4.21753e-16 0)
(-2.1684e-18 -2.1684e-18 0)
(2.72489e-16 -2.1684e-18 0)
(6.03025e-16 -2.1684e-18 0)
(2.40463e-16 3.90311e-17 0)
(-2.33261e-16 2.86228e-16 0)
(-5.94999e-16 1.66967e-16 0)
(-2.88984e-16 -2.1684e-18 0)
(-2.00681e-17 -2.1684e-18 0)
(-1.32164e-19 0 0)
(1.01736e-16 0 0)
(3.54236e-16 -4.33679e-18 0)
(1.74462e-16 -1.69135e-16 0)
(1.96796e-16 1.92987e-16 0)
(1.5865e-16 5.52941e-16 0)
(2.27475e-16 2.7105e-16 0)
(-4.44392e-17 0 0)
(-2.92258e-16 -2.1684e-18 0)
(-5.49088e-17 1.17093e-16 0)
(-8.16225e-17 3.49112e-16 0)
(-2.61441e-16 1.73472e-16 0)
(-2.65383e-18 0 0)
(2.5688e-16 1.47451e-16 0)
(7.66997e-17 3.29596e-16 0)
(2.2997e-16 1.45283e-16 0)
(-1.16493e-16 2.10334e-16 0)
(-4.5964e-16 7.37255e-17 0)
(-4.38848e-16 -4.33679e-18 0)
(-4.06079e-17 0 0)
(3.32842e-16 -2.1684e-18 0)
(8.814e-17 0 0)
(-3.25756e-20 8.67359e-18 0)
(8.82394e-16 2.21176e-16 0)
(2.30881e-11 3.59954e-16 0)
(5.73262e-08 2.65845e-15 0)
(1.60337e-05 3.40226e-15 0)
(0.000722618 6.034e-15 0)
(0.00798043 1.52949e-14 0)
(0.033723 9.12787e-15 0)
(0.0803067 -1.58334e-14 0)
(0.139951 3.04218e-14 0)
(0.206041 -2.05869e-14 0)
(0.27543 1.44504e-14 0)
(0.346796 2.27057e-14 0)
(0.419581 -1.12337e-14 0)
(0.49357 3.13808e-15 0)
(0.568768 4.18537e-15 0)
(0.645178 4.04663e-15 0)
(0.72262 -2.40493e-15 0)
(0.799905 2.72062e-15 0)
(0.872224 -2.07356e-15 0)
(0.926473 -9.25888e-16 0)
(0.943094 1.38461e-15 0)
(0.923268 5.60697e-15 0)
(0.92517 4.71162e-15 0)
(0.926852 3.14489e-15 0)
(0.927464 1.43873e-15 0)
(0.927912 4.7932e-16 0)
(0.928241 5.59671e-16 0)
(0.929012 -1.04924e-15 0)
(0.931881 -1.22069e-15 0)
(0.929087 1.86005e-15 0)
(0.918371 5.18692e-15 0)
(0.928127 6.66812e-15 0)
(0.936677 5.97521e-15 0)
(0.940029 3.11738e-15 0)
(0.934284 2.8983e-15 0)
(0.881502 2.64894e-15 0)
(0.630311 3.54099e-15 0)
(0.157933 3.04941e-17 0)
(0.00440027 2.32643e-15 0)
(8.94553e-06 -7.15565e-16 0)
(9.6272e-10 5.60531e-16 0)
(2.47454e-14 3.81638e-16 0)
(5.0264e-17 2.41776e-16 0)
(9.59954e-17 3.45859e-16 0)
(4.58496e-17 3.63206e-16 0)
(1.20655e-16 4.62953e-16 0)
(-2.35934e-17 3.00323e-16 0)
(-2.08064e-16 2.94902e-16 0)
(-3.62666e-17 4.67289e-16 0)
(1.49278e-16 5.16078e-16 0)
(2.97743e-16 3.67543e-16 0)
(2.44946e-16 4.94394e-16 0)
(1.78474e-17 4.38016e-16 0)
(-1.4121e-16 2.07082e-16 0)
(-2.49468e-17 5.96309e-17 0)
(-1.6029e-18 1.30104e-16 0)
(-1.35941e-16 1.58293e-16 0)
(-2.10253e-16 2.60208e-17 0)
(-1.07886e-16 1.27935e-16 0)
(-6.80367e-18 2.49366e-17 0)
(3.67244e-17 1.18178e-16 0)
(-1.57543e-16 3.11165e-16 0)
(-1.67996e-16 5.1391e-16 0)
(-2.83277e-17 3.76217e-16 0)
(-9.69809e-17 2.03829e-16 0)
(-1.72722e-17 9.32411e-17 0)
(-1.65504e-16 2.41776e-16 0)
(-3.38615e-16 1.97324e-16 0)
(-5.29089e-16 2.05998e-16 0)
(-2.1684e-18 2.1684e-18 0)
(3.15489e-16 2.1684e-18 0)
(6.60755e-16 2.1684e-18 0)
(2.4931e-16 1.66967e-16 0)
(-4.82456e-16 -1.49619e-16 0)
(-5.56992e-16 -5.44268e-16 0)
(-2.36344e-16 -2.40692e-16 0)
(-6.52577e-18 2.1684e-18 0)
(-2.46979e-18 0 0)
(1.23501e-16 -2.1684e-18 0)
(3.88198e-16 -2.1684e-18 0)
(2.16683e-16 1.47451e-16 0)
(3.98242e-16 2.1684e-17 0)
(2.15106e-16 2.01661e-16 0)
(2.52377e-16 1.95156e-17 0)
(-5.39859e-17 9.10727e-17 0)
(-3.6408e-16 2.1684e-18 0)
(-8.83375e-17 2.1684e-18 0)
(-1.01383e-16 -1.51788e-17 0)
(-2.90925e-16 0 0)
(4.52202e-17 0 0)
(3.25427e-16 2.60208e-16 0)
(6.25678e-17 3.46943e-17 0)
(-2.65882e-17 -9.75778e-17 0)
(-1.64718e-17 -3.68627e-16 0)
(-1.80467e-16 -1.58293e-16 0)
(-1.96172e-16 -1.12757e-16 0)
(3.31941e-17 0 0)
(9.29199e-17 2.1684e-18 0)
(4.52842e-21 0 0)
(-3.17217e-18 0 0)
(1.08598e-15 4.11995e-17 0)
(2.30878e-11 2.4286e-16 0)
(5.73262e-08 3.03576e-16 0)
(1.60337e-05 -1.24901e-15 0)
(0.000722618 9.75507e-15 0)
(0.00798043 3.22446e-15 0)
(0.033723 1.88884e-14 0)
(0.0803067 -2.65032e-14 0)
(0.139951 2.86663e-14 0)
(0.206041 -1.55985e-14 0)
(0.27543 5.69286e-15 0)
(0.346796 2.42625e-14 0)
(0.419581 -1.19249e-14 0)
(0.49357 3.62447e-15 0)
(0.568768 3.89759e-15 0)
(0.645178 -1.31247e-15 0)
(0.72262 -2.35914e-15 0)
(0.799905 -3.36433e-16 0)
(0.872224 -1.96506e-15 0)
(0.926473 -2.8027e-15 0)
(0.943094 -3.13635e-15 0)
(0.923268 3.89608e-15 0)
(0.92517 -2.61969e-15 0)
(0.926852 7.2358e-16 0)
(0.927464 7.70033e-16 0)
(0.927912 5.57778e-16 0)
(0.928241 1.44846e-15 0)
(0.929012 -2.62943e-15 0)
(0.931881 -1.48541e-15 0)
(0.929087 1.15761e-17 0)
(0.918371 4.50658e-15 0)
(0.928127 7.76876e-15 0)
(0.936677 2.23764e-15 0)
(0.940029 1.3936e-15 0)
(0.934284 1.19607e-15 0)
(0.881502 3.00632e-15 0)
(0.630311 5.62378e-15 0)
(0.157933 1.02632e-15 0)
(0.00440027 3.50261e-15 0)
(8.94553e-06 -1.5363e-15 0)
(9.62718e-10 2.0654e-15 0)
(2.4579e-14 1.36609e-16 0)
(7.92806e-17 2.61292e-16 0)
(-2.06347e-17 2.53702e-16 0)
(7.60663e-17 1.51788e-16 0)
(1.73722e-16 2.53702e-16 0)
(6.38595e-17 1.94071e-16 0)
(-5.25054e-17 3.23091e-16 0)
(9.10284e-17 4.69458e-16 0)
(4.75893e-17 6.03898e-16 0)
(1.70772e-16 4.92226e-16 0)
(5.82897e-17 3.06828e-16 0)
(-1.06144e-16 2.43945e-16 0)
(-1.53027e-16 3.3068e-16 0)
(-2.67777e-17 2.95986e-16 0)
(1.00859e-17 3.22007e-16 0)
(-2.78e-16 1.74556e-16 0)
(-4.24061e-16 1.60461e-16 0)
(-2.7461e-16 -3.68627e-17 0)
(-3.51209e-18 -1.17093e-16 0)
(2.23082e-16 -1.16009e-16 0)
(9.7696e-17 -8.67359e-18 0)
(6.43029e-17 3.15502e-16 0)
(4.38017e-17 5.49689e-16 0)
(-1.60836e-16 4.11995e-16 0)
(-2.34733e-16 7.48097e-17 0)
(-3.16801e-16 -1.35525e-16 0)
(-4.68012e-16 -6.83045e-17 0)
(-6.12572e-16 -1.94071e-16 0)
(0 0 0)
(1.40485e-16 0 0)
(3.8477e-16 -7.80623e-17 0)
(-2.55486e-17 -3.05744e-16 0)
(-5.5217e-16 -5.46436e-16 0)
(-2.48899e-16 -2.38524e-16 0)
(-7.38207e-17 -2.1684e-17 0)
(9.78229e-18 0 0)
(-1.73544e-17 0 0)
(1.46759e-16 2.1684e-18 0)
(4.0304e-16 1.90819e-16 0)
(2.10976e-16 3.75133e-16 0)
(-3.08153e-17 1.30104e-16 0)
(9.75031e-17 -1.43114e-16 0)
(2.99467e-16 -6.50519e-17 0)
(-5.87687e-17 -9.32411e-17 0)
(-4.1113e-16 0 0)
(-1.18831e-16 -9.97462e-17 0)
(-1.18206e-17 -3.77301e-16 0)
(-4.52223e-17 -1.36609e-16 0)
(1.98512e-16 0 0)
(5.63227e-17 1.51788e-17 0)
(-1.7751e-16 -2.23345e-16 0)
(-1.85298e-17 -4.33679e-17 0)
(5.14819e-19 -1.10588e-16 0)
(-4.54157e-18 0 0)
(-1.73468e-18 1.17093e-16 0)
(6.76705e-19 0 0)
(1.38743e-17 0 0)
(-1.18474e-21 0 0)
(-9.13075e-18 0 0)
(1.03285e-15 -4.33679e-18 0)
(2.30883e-11 -2.2985e-16 0)
(5.73262e-08 -2.17273e-15 0)
(1.60337e-05 -3.09218e-15 0)
(0.000722618 2.59065e-15 0)
(0.00798043 1.08719e-15 0)
(0.033723 1.77068e-14 0)
(0.0803067 -2.74495e-14 0)
(0.139951 2.1324e-14 0)
(0.206041 -1.07655e-14 0)
(0.27543 -3.56303e-15 0)
(0.346796 2.03594e-14 0)
(0.419581 -1.21913e-14 0)
(0.49357 9.14085e-16 0)
(0.568768 2.4587e-15 0)
(0.645178 -1.41009e-15 0)
(0.72262 -1.86276e-15 0)
(0.799905 8.29867e-16 0)
(0.872224 -9.54803e-16 0)
(0.926473 -3.89938e-15 0)
(0.943094 -3.46702e-15 0)
(0.923268 -1.69854e-15 0)
(0.92517 -2.35311e-15 0)
(0.926852 1.668e-15 0)
(0.927464 -8.06824e-18 0)
(0.927912 -1.22171e-15 0)
(0.928241 4.49046e-16 0)
(0.929012 -4.3748e-15 0)
(0.931881 -3.63138e-15 0)
(0.929087 -1.60445e-15 0)
(0.918371 3.55791e-15 0)
(0.928127 5.1904e-15 0)
(0.936677 2.00127e-16 0)
(0.940029 1.31615e-15 0)
(0.934284 -4.42703e-16 0)
(0.881502 9.6388e-16 0)
(0.630311 3.34238e-15 0)
(0.157933 -9.24353e-16 0)
(0.00440027 3.36976e-15 0)
(8.94553e-06 -4.33676e-17 0)
(9.62716e-10 8.04475e-16 0)
(2.48991e-14 -1.19262e-16 0)
(8.60154e-17 6.83045e-17 0)
(-1.4899e-17 3.36101e-17 0)
(9.86423e-17 -7.69781e-17 0)
(2.1311e-16 1.95156e-17 0)
(8.6848e-17 1.19262e-17 0)
(4.68595e-17 8.23991e-17 0)
(1.49873e-16 2.32018e-16 0)
(3.00991e-17 3.56701e-16 0)
(-1.25128e-19 2.99239e-16 0)
(-3.62884e-17 9.10727e-17 0)
(-1.40813e-16 1.95156e-17 0)
(1.282e-17 1.63714e-16 0)
(1.48906e-16 3.55617e-16 0)
(-6.19627e-18 1.40946e-16 0)
(-3.6358e-16 2.38524e-17 0)
(-5.98467e-16 8.34833e-17 0)
(-4.34223e-16 -8.23991e-17 0)
(-1.35682e-16 1.40946e-17 0)
(1.00659e-16 -2.38524e-16 0)
(3.30776e-16 -2.37439e-16 0)
(3.41524e-16 4.11995e-17 0)
(8.6125e-17 3.11165e-16 0)
(-2.33602e-16 2.11419e-16 0)
(-4.67849e-16 -9.64936e-17 0)
(-4.25068e-16 -3.08997e-16 0)
(-3.2326e-16 -2.54787e-16 0)
(-3.98985e-16 -3.57785e-16 0)
(0 0 0)
(8.5149e-17 -2.81892e-17 0)
(9.10287e-17 -3.72964e-16 0)
(-5.96206e-17 -7.0256e-16 0)
(-2.18913e-16 -3.90311e-16 0)
(-6.67859e-17 -1.51788e-17 0)
(9.44884e-17 0 0)
(4.74491e-17 0 0)
(-5.29497e-17 0 0)
(1.2784e-16 0 0)
(4.09029e-16 6.50519e-18 0)
(1.75952e-18 1.49619e-16 0)
(-3.47422e-16 0 0)
(-5.64889e-17 -5.20415e-17 0)
(1.77026e-16 0 0)
(2.41942e-17 -9.32411e-17 0)
(-2.30719e-16 0 0)
(-1.16672e-16 0 0)
(-1.97549e-17 -1.14925e-16 0)
(-5.32791e-18 0 0)
(1.85504e-16 0 0)
(3.03609e-18 -9.32411e-17 0)
(-1.64015e-16 -4.55363e-17 0)
(-1.79648e-17 0 0)
(1.54004e-18 0 0)
(-1.00025e-17 0 0)
(-3.38192e-18 0 0)
(1.32633e-19 0 0)
(-5.92938e-18 0 0)
(-8.387e-20 0 0)
(-4.12933e-17 0 0)
(9.24012e-16 0 0)
(2.3087e-11 -7.37255e-16 0)
(5.73262e-08 -9.54095e-16 0)
(1.60337e-05 -2.59561e-15 0)
(0.000722618 -3.91852e-15 0)
(0.00798043 3.64799e-15 0)
(0.033723 1.03329e-14 0)
(0.0803067 -1.71316e-14 0)
(0.139951 1.01137e-14 0)
(0.206041 -6.16428e-15 0)
(0.27543 -6.25595e-15 0)
(0.346796 1.48598e-14 0)
(0.419581 -8.89388e-15 0)
(0.49357 -9.94592e-16 0)
(0.568768 1.77163e-15 0)
(0.645178 1.06892e-15 0)
(0.72262 -2.24571e-15 0)
(0.799905 2.78118e-15 0)
(0.872224 -2.03016e-15 0)
(0.926473 1.20822e-15 0)
(0.943094 1.69464e-15 0)
(0.923268 -1.20145e-15 0)
(0.92517 -4.06695e-16 0)
(0.926852 1.38931e-15 0)
(0.927464 -1.80729e-16 0)
(0.927912 -1.22368e-15 0)
(0.928241 1.89888e-16 0)
(0.929012 -2.56865e-15 0)
(0.931881 -2.77623e-15 0)
(0.929087 -2.01563e-15 0)
(0.918371 2.54265e-15 0)
(0.928127 3.33151e-15 0)
(0.936677 8.12249e-16 0)
(0.940029 8.08134e-16 0)
(0.934284 -3.06565e-16 0)
(0.881502 -7.62249e-16 0)
(0.630311 7.14079e-16 0)
(0.157933 8.86235e-17 0)
(0.00440027 7.38755e-16 0)
(8.94553e-06 1.45607e-15 0)
(9.62715e-10 1.32272e-16 0)
(2.49035e-14 -4.77047e-17 0)
(4.05863e-17 -1.07336e-16 0)
(-7.34363e-17 -4.11995e-17 0)
(1.06779e-16 -2.27682e-17 0)
(2.41325e-16 0 0)
(8.34092e-17 0 0)
(9.49417e-17 2.1684e-18 0)
(2.06157e-16 0 0)
(6.21648e-17 0 0)
(-3.86224e-19 0 0)
(-1.25618e-17 0 0)
(-1.24226e-16 0 0)
(7.15438e-17 1.6263e-17 0)
(2.3921e-16 1.8323e-16 0)
(2.91538e-17 0 0)
(-3.59964e-16 0 0)
(-6.16919e-16 0 0)
(-4.21488e-16 0 0)
(-2.40378e-16 -1.6263e-17 0)
(3.42314e-17 -9.43252e-17 0)
(3.47948e-16 -9.8662e-17 0)
(4.30074e-16 0 0)
(1.61072e-16 0 0)
(-2.75347e-16 6.50519e-18 0)
(-5.38644e-16 5.85467e-17 0)
(-4.09656e-16 -1.0083e-16 0)
(-2.25205e-16 -8.34833e-17 0)
(-1.97324e-16 -1.57209e-16 0)
(1.7564e-16 1.99492e-16 0)
(1.58004e-16 0 0)
(-1.34021e-16 -1.47451e-16 0)
(-7.68702e-17 -3.83806e-16 0)
(-1.11968e-17 -1.14925e-16 0)
(4.79317e-17 0 0)
(2.9093e-16 7.58939e-17 0)
(9.05705e-17 2.55871e-16 0)
(-8.11685e-17 1.30104e-16 0)
(1.43314e-16 -2.1684e-18 0)
(4.20882e-16 0 0)
(5.23823e-17 0 0)
(-3.17744e-16 0 0)
(-2.91361e-17 -7.37255e-17 0)
(2.01521e-16 0 0)
(2.98895e-17 9.32411e-17 0)
(-2.30013e-16 6.93887e-17 0)
(-2.1841e-16 0 0)
(-5.31727e-17 0 0)
(2.7789e-17 0 0)
(2.22329e-16 0 0)
(1.52149e-18 9.32411e-17 0)
(-1.9531e-16 0 0)
(-1.84426e-17 0 0)
(1.61992e-19 0 0)
(-4.97904e-17 0 0)
(-1.95487e-17 0 0)
(-4.71523e-18 0 0)
(-5.52468e-17 0 0)
(-1.2193e-18 0 0)
(-9.20178e-17 0 0)
(8.50893e-16 -1.60461e-16 0)
(2.30866e-11 -8.28327e-16 0)
(5.73262e-08 9.10727e-16 0)
(1.60337e-05 -3.87064e-15 0)
(0.000722618 -3.96408e-15 0)
(0.00798043 2.88826e-15 0)
(0.033723 3.50789e-15 0)
(0.0803067 -4.84662e-15 0)
(0.139951 1.05746e-15 0)
(0.206041 -3.68951e-15 0)
(0.27543 -5.98611e-15 0)
(0.346796 7.4321e-15 0)
(0.419581 -5.13416e-15 0)
(0.49357 -3.05925e-15 0)
(0.568768 -1.82739e-15 0)
(0.645178 1.56956e-15 0)
(0.72262 -3.16044e-15 0)
(0.799905 4.18971e-15 0)
(0.872224 2.53167e-17 0)
(0.926473 4.73654e-15 0)
(0.943094 3.62413e-15 0)
(0.923268 -3.9774e-16 0)
(0.92517 6.70729e-16 0)
(0.926852 -8.8402e-16 0)
(0.927464 -8.29738e-16 0)
(0.927912 -1.04831e-15 0)
(0.928241 -3.69438e-16 0)
(0.929012 -2.13278e-15 0)
(0.931881 -2.29824e-15 0)
(0.929087 -2.56851e-15 0)
(0.918371 3.19896e-16 0)
(0.928127 6.94978e-16 0)
(0.936677 3.60943e-16 0)
(0.940029 -8.61126e-16 0)
(0.934284 -1.12441e-15 0)
(0.881502 -2.03604e-15 0)
(0.630311 -5.94521e-16 0)
(0.157933 7.40435e-16 0)
(0.00440027 -1.77993e-15 0)
(8.94553e-06 -2.25511e-16 0)
(9.62716e-10 -3.67543e-16 0)
(2.48917e-14 -1.70219e-16 0)
(7.36672e-17 -2.9707e-16 0)
(-3.54187e-17 -1.8323e-16 0)
(1.1062e-16 -4.33679e-17 0)
(2.74654e-16 -9.54094e-17 0)
(1.26697e-16 -1.39862e-16 0)
(8.54537e-18 -2.1684e-18 0)
(-3.38157e-17 -1.37693e-16 0)
(-1.92212e-18 -2.75386e-16 0)
(4.92731e-17 -2.78639e-16 0)
(1.67372e-16 -2.12503e-16 0)
(5.75103e-17 -7.04729e-17 0)
(1.02722e-16 7.15571e-17 0)
(1.1477e-16 3.36101e-17 0)
(-6.87556e-19 0 0)
(-3.06328e-16 0 0)
(-5.42234e-16 1.6263e-17 0)
(-5.05518e-16 1.16009e-16 0)
(-3.16014e-16 -6.93887e-17 0)
(7.0221e-17 -1.0842e-18 0)
(3.95371e-16 0 0)
(4.4995e-16 -8.78201e-17 0)
(2.62863e-16 -2.07082e-16 0)
(-7.90931e-17 -4.33679e-18 0)
(-4.02401e-16 2.27682e-16 0)
(-5.76838e-16 1.25767e-16 0)
(-4.07338e-16 1.71303e-16 0)
(-2.94902e-16 1.8865e-16 0)
(4.79216e-16 4.77047e-16 0)
(2.31848e-16 1.84314e-16 0)
(-1.94234e-16 1.40946e-16 0)
(-2.6328e-16 -1.38777e-16 0)
(-5.02535e-17 2.1684e-18 0)
(1.98044e-16 8.67359e-18 0)
(3.6886e-16 3.40438e-16 0)
(1.27423e-16 5.78962e-16 0)
(-5.79017e-17 3.96817e-16 0)
(1.84664e-16 1.53956e-16 0)
(3.35178e-16 1.36609e-16 0)
(6.6128e-17 -1.36609e-16 0)
(-2.34871e-16 -7.80623e-17 0)
(-2.30567e-17 -2.68881e-16 0)
(2.12508e-16 -6.28835e-17 0)
(2.77926e-17 2.81892e-17 0)
(-2.45623e-16 3.05744e-16 0)
(-3.58115e-16 1.23599e-16 0)
(-1.11618e-16 0 0)
(6.21937e-17 0 0)
(2.34875e-16 0 0)
(-2.37511e-18 -3.03576e-17 0)
(-1.98397e-16 0 0)
(-1.55831e-17 0 0)
(-2.70653e-17 0 0)
(-1.57856e-16 0 0)
(-7.02532e-17 0 0)
(-2.16375e-17 0 0)
(-1.45766e-16 0 0)
(-9.19064e-18 0 0)
(-1.00316e-16 0 0)
(8.18376e-16 1.0842e-17 0)
(2.30857e-11 8.6519e-16 0)
(5.73262e-08 4.20452e-15 0)
(1.60337e-05 -5.5902e-15 0)
(0.000722618 1.9137e-15 0)
(0.00798043 -5.04737e-15 0)
(0.033723 8.98171e-16 0)
(0.0803067 8.0003e-16 0)
(0.139951 -5.46456e-16 0)
(0.206041 -3.88894e-15 0)
(0.27543 -1.97977e-15 0)
(0.346796 -1.34262e-15 0)
(0.419581 -2.57021e-16 0)
(0.49357 -3.72678e-15 0)
(0.568768 -5.1854e-15 0)
(0.645178 1.47967e-15 0)
(0.72262 -3.65267e-15 0)
(0.799905 2.43577e-15 0)
(0.872224 2.67152e-15 0)
(0.926473 4.42918e-15 0)
(0.943094 2.98473e-15 0)
(0.923268 -5.44243e-17 0)
(0.92517 1.72242e-15 0)
(0.926852 -3.06083e-15 0)
(0.927464 -3.20696e-15 0)
(0.927912 -7.27222e-16 0)
(0.928241 -1.88165e-15 0)
(0.929012 -3.0187e-15 0)
(0.931881 -7.30674e-16 0)
(0.929087 -2.21104e-15 0)
(0.918371 -6.10256e-16 0)
(0.928127 -2.44875e-15 0)
(0.936677 -6.45306e-16 0)
(0.940029 -1.14188e-15 0)
(0.934284 -1.2974e-15 0)
(0.881502 -1.85575e-15 0)
(0.630311 -3.82388e-15 0)
(0.157933 2.31374e-15 0)
(0.00440027 -5.13889e-15 0)
(8.94553e-06 -1.13623e-15 0)
(9.62716e-10 -1.44849e-15 0)
(2.47839e-14 -2.03829e-16 0)
(1.1583e-16 -1.10588e-16 0)
(-5.5088e-17 -8.45675e-17 0)
(6.09094e-17 -9.54094e-17 0)
(2.081e-16 -2.4286e-16 0)
(1.16278e-16 -3.19838e-16 0)
(7.93304e-18 -2.11419e-16 0)
(-1.14447e-16 -3.40438e-16 0)
(4.72131e-19 -5.01984e-16 0)
(9.08618e-17 -5.06321e-16 0)
(2.38258e-16 -4.28258e-16 0)
(1.20584e-16 -2.60208e-16 0)
(1.55687e-16 -7.15571e-17 0)
(1.41788e-16 0 0)
(6.87606e-18 0 0)
(-9.58378e-17 -6.72203e-17 0)
(-3.5858e-16 8.56517e-17 0)
(-5.36945e-16 2.94902e-16 0)
(-3.07273e-16 1.34441e-16 0)
(3.01317e-17 1.51788e-17 0)
(3.32933e-16 9.10727e-17 0)
(4.83915e-16 -2.45029e-16 0)
(3.32485e-16 -4.16332e-16 0)
(9.26642e-17 -1.73472e-16 0)
(-3.37212e-16 5.09573e-17 0)
(-5.20817e-16 2.89481e-16 0)
(-4.0438e-16 3.94648e-16 0)
(-5.06321e-16 4.02238e-16 0)
(6.96055e-16 2.51534e-16 0)
(3.02403e-16 1.04083e-16 0)
(-1.95447e-16 9.97462e-17 0)
(-3.24738e-16 1.82145e-16 0)
(1.408e-17 9.75778e-17 0)
(3.62201e-16 2.62376e-16 0)
(5.53955e-16 1.64798e-16 0)
(1.95671e-16 3.07912e-16 0)
(-2.41589e-16 2.14671e-16 0)
(2.7634e-16 3.16586e-16 0)
(-2.70345e-17 1.51788e-17 0)
(-1.52726e-16 -2.53702e-16 0)
(-1.9689e-16 -4.33679e-18 0)
(-5.98824e-17 9.10727e-17 0)
(2.42278e-16 4.33679e-18 0)
(2.41019e-16 -1.82145e-16 0)
(-7.52074e-17 1.06251e-16 0)
(-4.39716e-16 2.34187e-16 0)
(-1.67707e-16 8.45675e-17 0)
(7.03973e-17 1.92987e-16 0)
(-1.65207e-16 3.25259e-17 0)
(-1.24871e-16 -2.38524e-16 0)
(1.42114e-16 3.90311e-17 0)
(1.8029e-16 2.60208e-16 0)
(-1.2274e-16 1.17093e-16 0)
(-3.25201e-16 2.38524e-17 0)
(-1.62616e-16 0 0)
(-4.39139e-17 0 0)
(-2.12612e-16 2.60208e-17 0)
(-4.0671e-17 -4.33679e-18 0)
(2.79343e-17 2.60208e-17 0)
(1.05024e-15 1.99492e-16 0)
(2.3089e-11 1.34224e-15 0)
(5.73262e-08 3.8489e-15 0)
(1.60337e-05 -4.12001e-15 0)
(0.000722618 7.84138e-15 0)
(0.00798043 -1.05466e-14 0)
(0.033723 -4.02782e-16 0)
(0.0803067 -1.39918e-15 0)
(0.139951 1.93032e-15 0)
(0.206041 -5.94284e-15 0)
(0.27543 2.66814e-15 0)
(0.346796 -1.07762e-14 0)
(0.419581 2.50909e-15 0)
(0.49357 -3.61776e-15 0)
(0.568768 -3.99112e-15 0)
(0.645178 -4.16551e-16 0)
(0.72262 -3.86704e-15 0)
(0.799905 1.91767e-15 0)
(0.872224 -7.78791e-16 0)
(0.926473 4.17885e-15 0)
(0.943094 5.01939e-15 0)
(0.923268 3.30343e-15 0)
(0.92517 4.81362e-16 0)
(0.926852 -1.23622e-15 0)
(0.927464 -3.26925e-15 0)
(0.927912 -6.4283e-17 0)
(0.928241 -2.51645e-15 0)
(0.929012 -2.36843e-15 0)
(0.931881 -8.01626e-16 0)
(0.929087 -3.99144e-16 0)
(0.918371 -1.32514e-15 0)
(0.928127 -3.29222e-15 0)
(0.936677 -1.49942e-15 0)
(0.940029 -1.87257e-15 0)
(0.934284 -1.6618e-15 0)
(0.881502 -1.30686e-15 0)
(0.630311 -5.19324e-15 0)
(0.157933 4.94577e-16 0)
(0.00440027 -2.73037e-15 0)
(8.94553e-06 -1.14165e-15 0)
(9.62718e-10 -8.81453e-16 0)
(2.49079e-14 -5.42099e-17 0)
(-1.88023e-17 6.07151e-17 0)
(-1.49611e-16 -8.56517e-17 0)
(-5.89225e-17 2.49366e-17 0)
(9.7772e-17 -8.99885e-17 0)
(1.68988e-16 -1.4203e-16 0)
(-7.41033e-18 -8.89043e-17 0)
(-1.67688e-16 -2.07082e-16 0)
(8.57555e-18 -2.39608e-16 0)
(1.36528e-16 -2.7105e-16 0)
(3.06565e-16 -2.28766e-16 0)
(2.04662e-16 -2.51534e-16 0)
(2.48031e-16 -1.0083e-16 0)
(1.70891e-16 0 0)
(2.35708e-17 -9.43252e-17 0)
(4.90932e-17 -2.39608e-16 0)
(-6.36997e-17 -8.67359e-18 0)
(-2.99015e-16 2.32018e-16 0)
(-2.71768e-16 3.3827e-16 0)
(-6.89116e-17 1.39862e-16 0)
(1.87912e-16 1.0842e-17 0)
(2.44255e-16 -1.51788e-16 0)
(4.12381e-16 -2.55871e-16 0)
(2.06651e-16 -6.93887e-17 0)
(-1.51604e-16 -1.05167e-16 0)
(-3.77328e-16 1.45283e-16 0)
(-4.7222e-16 2.08166e-16 0)
(-6.39677e-16 2.74302e-16 0)
(4.90058e-16 -2.1684e-18 0)
(2.12957e-16 2.55871e-16 0)
(-1.27342e-16 2.81892e-16 0)
(-8.66591e-17 4.64037e-16 0)
(1.75124e-16 3.53449e-16 0)
(4.19961e-16 5.91972e-16 0)
(3.73391e-16 3.46943e-16 0)
(5.22106e-17 1.23599e-16 0)
(-5.89095e-17 1.97324e-16 0)
(-9.17709e-17 -5.42099e-17 0)
(-3.27121e-16 -3.10081e-16 0)
(-7.47694e-17 -5.85467e-17 0)
(-2.07161e-16 2.36355e-16 0)
(-3.29607e-19 4.597e-16 0)
(2.25844e-16 2.34187e-16 0)
(9.14172e-17 -2.1684e-18 0)
(1.10306e-17 1.38777e-16 0)
(-2.5186e-16 4.03322e-16 0)
(-5.42833e-17 3.01407e-16 0)
(6.34468e-17 4.90058e-16 0)
(-1.75684e-16 2.55871e-16 0)
(-1.21366e-16 6.28835e-17 0)
(1.46984e-16 2.55871e-16 0)
(1.98748e-16 5.76793e-16 0)
(-1.61943e-16 3.75133e-16 0)
(-5.31632e-16 2.27682e-16 0)
(-2.66953e-16 2.81892e-17 0)
(-5.2572e-17 6.50519e-17 0)
(-2.36686e-16 2.1684e-18 0)
(-1.08587e-16 -1.82145e-16 0)
(1.42773e-16 0 0)
(1.2051e-15 6.50519e-18 0)
(2.30882e-11 -1.5504e-15 0)
(5.73262e-08 2.48715e-15 0)
(1.60337e-05 -2.79944e-15 0)
(0.000722618 5.50025e-15 0)
(0.00798043 -8.29366e-15 0)
(0.033723 -1.90234e-15 0)
(0.0803067 -9.85813e-16 0)
(0.139951 4.42544e-15 0)
(0.206041 -6.03737e-15 0)
(0.27543 5.80988e-15 0)
(0.346796 -1.74599e-14 0)
(0.419581 2.31476e-15 0)
(0.49357 -2.90495e-15 0)
(0.568768 -3.29686e-15 0)
(0.645178 -2.79891e-15 0)
(0.72262 -4.74014e-15 0)
(0.799905 2.44587e-15 0)
(0.872224 3.14651e-16 0)
(0.926473 2.9719e-15 0)
(0.943094 4.22062e-15 0)
(0.923268 3.47683e-15 0)
(0.92517 -2.60539e-17 0)
(0.926852 3.22159e-16 0)
(0.927464 -1.31835e-15 0)
(0.927912 -8.94028e-16 0)
(0.928241 -2.06947e-15 0)
(0.929012 -1.37959e-16 0)
(0.931881 -1.49081e-15 0)
(0.929087 3.81549e-16 0)
(0.918371 -1.12439e-15 0)
(0.928127 -3.12791e-16 0)
(0.936677 -6.6828e-16 0)
(0.940029 -3.56119e-15 0)
(0.934284 -2.712e-15 0)
(0.881502 -1.5341e-15 0)
(0.630311 -3.19735e-15 0)
(0.157933 -2.39474e-15 0)
(0.00440027 2.4042e-15 0)
(8.94553e-06 -1.58292e-16 0)
(9.62718e-10 7.81707e-16 0)
(2.49502e-14 4.66205e-17 0)
(-2.6524e-17 -4.11995e-17 0)
(-1.33028e-16 7.04729e-17 0)
(4.27898e-17 1.68051e-16 0)
(2.38311e-16 1.95156e-16 0)
(1.058e-16 2.27682e-17 0)
(-8.95382e-17 -7.15571e-17 0)
(-5.64283e-17 9.43252e-17 0)
(1.04891e-16 1.73472e-16 0)
(3.78642e-18 7.04729e-17 0)
(8.97137e-17 6.28835e-17 0)
(2.347e-16 -4.87889e-17 0)
(2.77406e-16 0 0)
(8.61909e-17 0 0)
(-8.31249e-17 -1.50704e-16 0)
(7.30542e-17 -5.63783e-17 0)
(1.50061e-16 0 0)
(-2.80845e-17 -1.95156e-17 0)
(-1.79786e-16 1.44198e-16 0)
(-1.15214e-16 3.90311e-17 0)
(6.16984e-17 1.37693e-16 0)
(1.84685e-16 1.85398e-16 0)
(3.19132e-16 8.02307e-17 0)
(1.16173e-16 -1.35525e-16 0)
(-2.30244e-16 -2.15755e-16 0)
(-4.26507e-16 -1.73472e-17 0)
(-4.29097e-16 1.51788e-17 0)
(-5.46436e-16 1.18178e-16 0)
(7.0256e-16 -2.27682e-16 0)
(3.21019e-16 -9.97462e-17 0)
(-1.17096e-16 -6.07151e-17 0)
(-1.49348e-16 1.92987e-16 0)
(2.04198e-16 1.73472e-16 0)
(5.33396e-16 2.86228e-16 0)
(2.00873e-16 -3.68627e-17 0)
(-2.82352e-17 -3.49112e-16 0)
(-2.82663e-16 -2.08166e-16 0)
(-4.55316e-16 -4.22837e-16 0)
(-1.13147e-16 -8.89043e-17 0)
(1.72669e-16 2.19008e-16 0)
(-2.21183e-17 5.63783e-17 0)
(-2.11851e-16 2.47197e-16 0)
(-3.40763e-17 -4.33679e-18 0)
(2.75282e-16 -5.20415e-17 0)
(1.96918e-16 -1.64798e-16 0)
(1.02971e-17 1.73472e-17 0)
(4.24066e-18 4.33679e-18 0)
(3.41638e-17 7.15571e-17 0)
(-1.50933e-16 -1.0842e-16 0)
(-9.75677e-17 4.33679e-18 0)
(1.47876e-16 8.02307e-17 0)
(4.10373e-17 1.99492e-16 0)
(-3.45316e-16 8.67359e-18 0)
(-7.19599e-16 8.67359e-18 0)
(-3.27079e-16 0 0)