/*--------------------------------*- C++ -*----------------------------------*\
| =========                 |                                                 |
| \\      /  F ield         | OpenFOAM: The Open Source CFD Toolbox           |
|  \\    /   O peration     | Version:  4.1                                   |
|   \\  /    A nd           | Web:      www.OpenFOAM.org                      |
|    \\/     M anipulation  |                                                 |
\*---------------------------------------------------------------------------*/
FoamFile
{
    version     2.0;
    format      ascii;
    class       volVectorField;
    location    "0.04";
    object      U;
}
// * * * * * * * * * * * * * * * * * * * * * * * * * * * * * * * * * * * * * //

dimensions      [0 1 -1 0 0 0 0];

internalField   nonuniform List<vector> 
10000
(
(0 0 0)
(2.57373e-19 0 0)
(1.50611e-17 0 0)
(-5.18734e-19 5.20415e-17 0)
(-9.31152e-18 0 0)
(-1.95169e-19 0 0)
(-4.05656e-19 0 0)
(3.74906e-20 0 0)
(1.69377e-36 0 0)
(5.48655e-17 9.75778e-17 0)
(2.41674e-16 0 0)
(1.31688e-20 -1.40946e-16 0)
(-2.65971e-16 0 0)
(-3.94712e-17 0 0)
(1.53576e-17 0 0)
(3.4287e-18 5.63783e-17 0)
(-1.58489e-17 0 0)
(-1.81884e-19 0 0)
(-1.28099e-26 0 0)
(-7.59209e-22 0 0)
(1.24303e-25 0 0)
(-3.117e-18 9.32411e-17 0)
(2.16111e-18 0 0)
(3.30418e-19 0 0)
(1.69215e-20 0 0)
(-2.73278e-19 0 0)
(-1.33762e-16 -1.17093e-16 0)
(2.34545e-19 1.0842e-17 0)
(1.30588e-16 0 0)
(1.21689e-20 1.2143e-16 0)
(-6.0552e-17 0 0)
(-2.29669e-29 -1.14925e-16 0)
(5.8447e-17 -2.1684e-18 0)
(-1.25607e-16 0 0)
(-6.63306e-19 0 0)
(5.77065e-18 1.04083e-16 0)
(-3.62965e-17 0 0)
(4.30055e-17 0 0)
(-1.43201e-16 0 0)
(1.29444e-17 -1.04083e-16 0)
(1.49765e-16 0 0)
(3.00122e-17 0 0)
(1.10076e-12 1.47451e-16 0)
(1.40677e-08 1.51788e-17 0)
(1.34364e-05 -1.88653e-16 0)
(0.00137589 -2.1644e-15 0)
(0.0239807 -4.69238e-15 0)
(0.123561 2.04378e-15 0)
(0.308344 -1.06236e-15 0)
(0.585487 5.8015e-16 0)
(0.870748 1.57329e-15 0)
(0.944205 2.10858e-15 0)
(0.878166 1.83448e-15 0)
(0.600413 8.34932e-16 0)
(0.154298 -2.55401e-15 0)
(0.00523039 7.54703e-16 0)
(1.50394e-05 -8.67347e-18 0)
(2.6653e-09 -6.36424e-16 0)
(7.79366e-14 1.19262e-17 0)
(-2.02483e-16 0 0)
(-1.81243e-16 0 0)
(-3.36052e-17 0 0)
(5.78437e-20 0 0)
(1.03242e-16 -6.17993e-17 0)
(-6.38342e-20 -2.12503e-16 0)
(-1.03121e-16 -5.52941e-17 0)
(-1.13291e-18 0 0)
(-1.13124e-21 0 0)
(4.03891e-17 0 0)
(1.7433e-16 0 0)
(1.78844e-18 0 0)
(-1.47055e-16 0 0)
(1.21344e-17 9.75778e-17 0)
(-5.21285e-18 3.25259e-16 0)
(-7.03627e-17 1.27935e-16 0)
(2.66155e-17 0 0)
(1.90788e-16 0 0)
(-2.8736e-18 0 0)
(-1.9951e-16 3.79469e-17 0)
(2.40056e-18 0 0)
(2.04635e-16 0 0)
(1.02514e-18 0 0)
(-2.05118e-16 0 0)
(1.57468e-18 0 0)
(2.04284e-16 3.25259e-17 0)
(8.32279e-17 0 0)
(-9.13351e-17 0 0)
(-7.32178e-20 0 0)
(-3.17033e-21 0 0)
(-5.16333e-18 0 0)
(-3.26114e-17 -3.25259e-18 0)
(-1.58282e-16 0 0)
(-1.62901e-17 0 0)
(3.68171e-17 0 0)
(1.78781e-16 0 0)
(2.09475e-18 0 0)
(-1.70653e-16 4.55363e-17 0)
(-3.98668e-17 0 0)
(-7.62213e-21 0 0)
(0 0 0)
(0 0 0)
(8.9909e-18 0 0)
(1.02991e-16 5.20415e-17 0)
(2.44638e-18 2.34187e-16 0)
(-8.10696e-17 5.20415e-17 0)
(-5.72288e-18 5.20415e-17 0)
(-1.53694e-17 0 0)
(3.78662e-20 0 0)
(3.88229e-35 0 0)
(6.51004e-18 0 0)
(1.16733e-16 0 0)
(3.87081e-20 0 0)
(-1.35908e-16 0 0)
(-4.03438e-18 0 0)
(1.04208e-16 5.63783e-17 0)
(2.35899e-18 2.36355e-16 0)
(-9.86676e-17 5.42099e-17 0)
(-6.06784e-18 0 0)
(-8.59523e-23 0 0)
(-3.33851e-19 0 0)
(5.96164e-22 0 0)
(-5.42996e-18 2.1684e-18 0)
(1.90057e-18 0 0)
(1.22045e-17 0 0)
(3.09559e-19 4.33679e-17 0)
(-1.21386e-17 0 0)
(-2.12976e-17 6.72203e-17 0)
(1.01979e-18 1.92987e-16 0)
(1.23765e-17 6.50519e-18 0)
(1.25518e-19 0 0)
(-1.27706e-16 0 0)
(-1.83061e-27 0 0)
(1.27706e-16 -9.10727e-17 0)
(4.48034e-21 0 0)
(1.32702e-19 5.85467e-17 0)
(1.86083e-17 2.81892e-16 0)
(-1.0438e-16 1.04083e-16 0)
(8.14076e-17 0 0)
(-6.48273e-17 0 0)
(3.20204e-17 1.56125e-16 0)
(3.1883e-18 0 0)
(8.19959e-17 0 0)
(1.10122e-12 2.86228e-16 0)
(1.40677e-08 -8.23991e-17 0)
(1.34364e-05 -4.72065e-15 0)
(0.00137589 8.57512e-16 0)
(0.0239807 -1.11086e-15 0)
(0.123561 7.45932e-16 0)
(0.308344 1.57477e-15 0)
(0.585487 2.67924e-15 0)
(0.870748 3.40606e-15 0)
(0.944205 2.49822e-15 0)
(0.878166 7.67789e-16 0)
(0.600413 9.8518e-16 0)
(0.154298 -1.22931e-15 0)
(0.00523039 -1.33882e-16 0)
(1.50394e-05 -1.60459e-16 0)
(2.6653e-09 -1.70328e-15 0)
(7.79275e-14 1.51788e-17 0)
(-1.7991e-16 0 0)
(-1.68327e-16 0 0)
(-3.14111e-17 3.03576e-17 0)
(5.35879e-18 0 0)
(6.4427e-17 2.38524e-17 0)
(-1.97285e-19 2.81892e-17 0)
(-7.40611e-17 3.57785e-17 0)
(-5.53647e-18 0 0)
(-4.79943e-21 0 0)
(3.48789e-17 0 0)
(1.62941e-16 2.60208e-17 0)
(1.52763e-17 0 0)
(-5.4455e-17 0 0)
(4.88688e-17 4.33679e-18 0)
(-4.76434e-17 1.10588e-16 0)
(-1.55567e-16 2.60208e-17 0)
(9.76259e-18 4.33679e-18 0)
(1.99995e-16 0 0)
(6.57897e-18 0 0)
(-1.64057e-16 1.39862e-16 0)
(-1.13794e-17 0 0)
(1.74878e-16 0 0)
(1.01818e-17 0 0)
(-1.80971e-16 0 0)
(1.78692e-17 3.36101e-17 0)
(1.92547e-16 1.33356e-16 0)
(6.3087e-17 -1.73472e-17 0)
(-1.05958e-16 0 0)
(-2.96466e-18 0 0)
(-2.83939e-19 0 0)
(-4.22369e-17 -3.25259e-18 0)
(-1.82495e-17 -1.05167e-16 0)
(-1.20934e-16 -2.1684e-18 0)
(-1.59002e-17 4.11995e-17 0)
(3.40297e-17 0 0)
(1.71547e-16 0 0)
(1.15971e-17 -6.50519e-18 0)
(-1.41236e-16 1.47451e-16 0)
(-5.43254e-17 3.25259e-17 0)
(-1.6471e-18 0 0)
(0 3.14417e-17 0)
(0 0 0)
(4.51209e-17 0 0)
(2.64679e-16 0 0)
(1.17882e-17 4.33679e-17 0)
(-2.16262e-16 9.32411e-17 0)
(-3.46324e-17 2.77555e-16 0)
(-9.78405e-17 6.50519e-17 0)
(-4.94796e-18 0 0)
(-8.15994e-35 0 0)
(2.88683e-17 0 0)
(2.387e-16 0 0)
(1.64547e-18 4.33679e-18 0)
(-2.97826e-16 0 0)
(-1.77728e-18 8.02307e-17 0)
(2.75885e-16 0 0)
(1.27892e-18 3.03576e-17 0)
(-2.36698e-16 0 0)
(-2.87939e-17 0 0)
(-1.33784e-20 4.55363e-17 0)
(-1.54127e-17 0 0)
(2.04063e-19 0 0)
(9.33904e-18 0 0)
(-3.21359e-19 4.11995e-17 0)
(7.75259e-17 7.80623e-17 0)
(6.75616e-19 2.62376e-16 0)
(-1.03316e-16 4.55363e-17 0)
(-1.11574e-16 0 0)
(2.18224e-18 6.50519e-18 0)
(9.40511e-17 0 0)
(5.5273e-18 0 0)
(1.59706e-26 8.67359e-18 0)
(-7.68376e-26 1.99492e-16 0)
(7.93203e-29 9.54094e-17 0)
(6.23459e-20 1.51788e-17 0)
(6.97864e-18 1.97324e-16 0)
(6.01372e-17 1.27935e-16 0)
(-1.2364e-16 3.12249e-16 0)
(4.79294e-17 1.27935e-16 0)
(-1.10888e-16 7.80623e-17 0)
(7.38326e-17 2.55871e-16 0)
(1.52154e-17 5.20415e-17 0)
(8.84953e-17 0 0)
(1.1012e-12 9.32411e-17 0)
(1.40677e-08 -5.07405e-16 0)
(1.34364e-05 -2.46983e-15 0)
(0.00137589 9.94279e-16 0)
(0.0239807 2.9077e-15 0)
(0.123561 -4.38642e-16 0)
(0.308344 4.05312e-15 0)
(0.585487 2.28192e-15 0)
(0.870748 1.37876e-15 0)
(0.944205 1.78067e-15 0)
(0.878166 4.89646e-16 0)
(0.600413 1.47349e-15 0)
(0.154298 -3.12146e-16 0)
(0.00523039 -2.5092e-15 0)
(1.50394e-05 -1.12538e-15 0)
(2.66531e-09 -7.35086e-16 0)
(7.79034e-14 4.33679e-18 0)
(-1.42387e-16 -7.69781e-17 0)
(-1.23711e-16 8.13149e-17 0)
(-4.65395e-17 1.56125e-16 0)
(5.28654e-17 5.42099e-17 0)
(1.56051e-16 1.56125e-16 0)
(-8.30339e-18 1.18178e-16 0)
(-1.91502e-16 1.63714e-16 0)
(-5.71503e-17 3.03576e-17 0)
(1.52058e-19 0 0)
(5.37689e-17 3.36101e-17 0)
(1.47915e-16 1.63714e-16 0)
(1.1269e-17 2.60208e-17 0)
(-8.21345e-17 2.60208e-17 0)
(2.52432e-17 1.40946e-17 0)
(1.15636e-18 -8.78201e-17 0)
(-9.72591e-17 2.60208e-17 0)
(1.31758e-17 1.36609e-16 0)
(1.17775e-16 3.46943e-17 0)
(4.41604e-17 0 0)
(-1.02139e-16 3.79469e-17 0)
(-6.37547e-17 2.60208e-17 0)
(6.91288e-17 1.0842e-17 0)
(4.83556e-17 -5.31257e-17 0)
(-5.61995e-17 5.74625e-17 0)
(4.93821e-17 1.61546e-16 0)
(1.2045e-16 7.58939e-18 0)
(-3.20367e-18 -1.39862e-16 0)
(-1.07617e-16 -5.63783e-17 0)
(-5.61829e-18 5.20415e-17 0)
(-3.09125e-18 -4.98731e-17 0)
(-1.0562e-16 5.42099e-17 0)
(-3.24157e-18 -2.1684e-18 0)
(-4.00721e-18 1.16009e-16 0)
(-5.52052e-17 1.71303e-16 0)
(-3.36977e-17 3.79469e-17 0)
(1.19049e-16 4.33679e-18 0)
(1.0914e-16 -1.18178e-16 0)
(-6.42325e-17 1.0842e-18 0)
(-1.33306e-16 1.59377e-16 0)
(-3.05877e-17 5.63783e-17 0)
(0 1.59377e-16 0)
(-2.1684e-18 -2.1684e-18 0)
(2.25047e-17 -2.1684e-18 0)
(1.51386e-16 -2.1684e-18 0)
(7.12132e-17 3.68627e-17 0)
(-2.02833e-17 2.62376e-16 0)
(-8.7515e-17 2.60208e-17 0)
(-2.3527e-16 -2.1684e-18 0)
(-2.88122e-17 -2.1684e-18 0)
(-6.78218e-30 0 0)
(-2.51099e-19 0 0)
(5.4995e-17 -4.33679e-18 0)
(3.80153e-18 -1.69135e-16 0)
(4.7758e-18 2.1684e-17 0)
(8.33031e-19 3.20923e-16 0)
(9.27254e-17 9.97462e-17 0)
(9.36203e-19 0 0)
(-5.73713e-17 -2.1684e-18 0)
(3.69614e-17 5.20415e-17 0)
(-2.95389e-19 2.60208e-16 0)
(-9.96381e-17 7.15571e-17 0)
(7.51067e-18 0 0)
(1.01425e-16 6.07151e-17 0)
(1.02362e-17 2.58039e-16 0)
(1.93164e-16 7.37255e-17 0)
(1.16794e-18 2.38524e-17 0)
(-2.75484e-16 -2.1684e-18 0)
(-2.84414e-16 -4.33679e-18 0)
(2.17634e-17 0 0)
(2.36308e-16 -2.1684e-18 0)
(2.95523e-17 0 0)
(1.71983e-25 0 0)
(-1.81303e-24 8.67359e-18 0)
(1.36186e-27 0 0)
(4.12964e-19 -2.1684e-18 0)
(2.98787e-17 4.33679e-18 0)
(2.37978e-16 0 0)
(-1.60507e-17 5.85467e-17 0)
(-1.37613e-16 -2.1684e-18 0)
(-1.13867e-16 0 0)
(9.89597e-28 4.55363e-17 0)
(9.03469e-17 -2.1684e-18 0)
(1.91953e-16 0 0)
(1.10135e-12 2.08166e-16 0)
(1.40677e-08 3.31765e-16 0)
(1.34364e-05 7.87137e-16 0)
(0.00137589 1.30255e-16 0)
(0.0239807 2.05354e-15 0)
(0.123561 -8.86924e-16 0)
(0.308344 -2.09296e-16 0)
(0.585487 -1.73342e-15 0)
(0.870748 -1.46372e-15 0)
(0.944205 4.05681e-16 0)
(0.878166 2.08414e-15 0)
(0.600413 9.77272e-16 0)
(0.154298 5.20243e-16 0)
(0.00523039 -2.37316e-15 0)
(1.50394e-05 -1.46365e-16 0)
(2.66531e-09 2.13587e-16 0)
(7.77793e-14 4.33679e-18 0)
(-1.23257e-17 2.60208e-17 0)
(-2.14134e-17 0 0)
(-9.70675e-17 5.52941e-17 0)
(1.66208e-17 1.71303e-16 0)
(1.06875e-16 1.10588e-16 0)
(4.13616e-18 8.67359e-18 0)
(-1.11824e-16 1.25767e-16 0)
(-1.03806e-16 1.63714e-16 0)
(2.601e-18 5.85467e-17 0)
(1.10261e-16 1.6263e-16 0)
(6.43139e-17 1.70219e-16 0)
(-5.64641e-17 4.98731e-17 0)
(-1.34529e-16 1.52872e-16 0)
(-8.22627e-18 1.2902e-16 0)
(6.19169e-18 3.14417e-17 0)
(4.03507e-17 1.52872e-16 0)
(1.19438e-19 1.89735e-16 0)
(5.91695e-18 1.73472e-16 0)
(-6.24061e-18 4.22837e-17 0)
(-1.23617e-16 3.68627e-17 0)
(-8.20789e-18 1.52872e-16 0)
(1.59691e-17 1.60461e-16 0)
(1.24435e-16 5.20415e-17 0)
(9.75834e-17 1.7564e-16 0)
(-5.36958e-17 1.71303e-16 0)
(-8.38118e-17 0 0)
(-3.55554e-19 -8.45675e-17 0)
(5.89912e-17 6.50519e-18 0)
(-2.99724e-17 8.99885e-17 0)
(-1.57902e-17 -1.30104e-17 0)
(2.10371e-17 8.78201e-17 0)
(6.17944e-19 0 0)
(2.23237e-17 6.72203e-17 0)
(-1.18199e-16 1.38777e-16 0)
(-1.47102e-16 1.81061e-16 0)
(-1.11944e-17 1.38777e-16 0)
(-2.13125e-18 3.25259e-18 0)
(8.98893e-17 0 0)
(-9.00543e-18 9.75778e-17 0)
(-6.43395e-17 1.86482e-16 0)
(-1.66967e-16 1.01915e-16 0)
(-2.1684e-18 2.1684e-18 0)
(8.33016e-17 2.1684e-18 0)
(3.29361e-16 2.1684e-18 0)
(1.36618e-16 1.38777e-16 0)
(-2.33776e-16 0 0)
(-2.64951e-16 -2.86228e-16 0)
(-4.11048e-17 -6.28835e-17 0)
(1.21597e-22 2.1684e-18 0)
(-1.93846e-25 0 0)
(9.21598e-18 -2.1684e-18 0)
(1.36636e-16 -6.50519e-17 0)
(2.00129e-17 1.17093e-16 0)
(2.01452e-16 0 0)
(1.87308e-17 2.1684e-18 0)
(1.11227e-16 -8.89043e-17 0)
(2.53123e-18 9.10727e-17 0)
(-1.44229e-16 2.1684e-18 0)
(4.27557e-17 2.1684e-18 0)
(-8.3531e-18 2.1684e-18 0)
(-2.29266e-16 0 0)
(5.56277e-17 0 0)
(2.16539e-16 2.53702e-16 0)
(-1.34378e-17 3.46943e-17 0)
(-5.22073e-17 -4.11995e-17 0)
(3.4493e-23 -2.73218e-16 0)
(-6.81042e-17 -8.67359e-17 0)
(-9.86393e-17 -9.32411e-17 0)
(8.7239e-17 0 0)
(2.97056e-17 2.1684e-18 0)
(5.02989e-27 0 0)
(9.65495e-25 0 0)
(-6.92813e-22 0 0)
(9.26617e-24 0 0)
(5.87019e-18 2.1684e-18 0)
(9.62266e-17 0 0)
(5.60148e-17 9.32411e-17 0)
(-1.14738e-16 -9.32411e-17 0)
(-4.69292e-17 2.1684e-18 0)
(-2.28773e-16 0 0)
(9.42859e-26 0 0)
(1.75455e-16 2.1684e-18 0)
(2.57285e-16 1.0842e-17 0)
(1.10164e-12 7.28581e-16 0)
(1.40677e-08 1.64798e-16 0)
(1.34364e-05 3.45646e-15 0)
(0.00137589 -1.77147e-15 0)
(0.0239807 -1.99047e-15 0)
(0.123561 4.60333e-16 0)
(0.308344 -2.57361e-15 0)
(0.585487 -1.59981e-15 0)
(0.870748 -1.80849e-15 0)
(0.944205 -2.21361e-15 0)
(0.878166 -8.74506e-16 0)
(0.600413 -1.67711e-15 0)
(0.154298 1.75341e-16 0)
(0.00523039 1.31182e-15 0)
(1.50394e-05 3.01403e-16 0)
(2.66531e-09 1.32381e-15 0)
(7.79319e-14 -6.83045e-17 0)
(-1.16708e-16 1.27935e-16 0)
(-1.17483e-16 1.40946e-17 0)
(2.15485e-17 0 0)
(6.21864e-17 6.50519e-17 0)
(-4.14048e-17 -3.79469e-17 0)
(9.39616e-32 0 0)
(4.26458e-17 -3.14417e-17 0)
(-6.02055e-17 7.26413e-17 0)
(8.01348e-18 1.24683e-16 0)
(1.18612e-16 1.84314e-17 0)
(1.36709e-17 3.14417e-17 0)
(8.05212e-21 -5.09573e-17 0)
(-2.58172e-17 5.20415e-17 0)
(-2.64822e-19 1.30104e-17 0)
(3.03043e-17 1.13841e-16 0)
(-2.39185e-17 1.09504e-16 0)
(1.56259e-18 9.75778e-18 0)
(4.71574e-17 1.10588e-16 0)
(1.83277e-18 8.67359e-18 0)
(-1.87795e-17 5.31257e-17 0)
(1.30126e-17 1.77809e-16 0)
(-8.39143e-20 1.74556e-16 0)
(1.16958e-17 1.64798e-16 0)
(-6.11905e-20 4.87889e-17 0)
(-1.53182e-17 4.44521e-17 0)
(-1.24491e-16 1.07336e-16 0)
(-1.01679e-18 8.45675e-17 0)
(4.621e-17 1.44198e-16 0)
(-5.72246e-17 4.11995e-17 0)
(-6.2968e-17 9.43252e-17 0)
(-3.89561e-17 -4.33679e-17 0)
(5.29168e-18 -8.56517e-17 0)
(1.35739e-16 -6.72203e-17 0)
(3.50813e-17 -4.11995e-17 0)
(4.7368e-17 1.18178e-16 0)
(4.22692e-18 1.73472e-16 0)
(-1.39707e-17 1.79977e-16 0)
(-5.62165e-17 6.72203e-17 0)
(-4.08113e-17 -9.64936e-17 0)
(-1.11598e-16 3.25259e-18 0)
(-2.15755e-16 -9.8662e-17 0)
(0 0 0)
(3.53253e-17 0 0)
(2.47446e-16 0 0)
(2.11514e-17 -1.38777e-16 0)
(-2.72939e-16 -3.07912e-16 0)
(-4.16189e-17 -7.80623e-17 0)
(-3.76873e-20 0 0)
(1.19829e-21 0 0)
(-9.79632e-22 0 0)
(6.19906e-17 2.1684e-18 0)
(2.86323e-16 1.2143e-16 0)
(8.22857e-17 2.73218e-16 0)
(-1.44067e-16 1.95156e-17 0)
(2.79721e-17 -2.38524e-16 0)
(2.09716e-16 -6.50519e-17 0)
(3.06625e-18 -9.32411e-17 0)
(-2.50082e-16 0 0)
(-1.98809e-17 -4.33679e-17 0)
(-3.32827e-22 -2.75386e-16 0)
(-3.38344e-17 -6.50519e-17 0)
(1.73738e-16 0 0)
(6.61757e-19 1.73472e-17 0)
(-2.28854e-16 -2.27682e-16 0)
(-3.64655e-17 -3.68627e-17 0)
(3.16989e-22 -4.98731e-17 0)
(-2.99239e-28 0 0)
(-1.45839e-26 9.75778e-17 0)
(5.47514e-29 0 0)
(7.73894e-23 0 0)
(-2.51348e-26 0 0)
(-1.54915e-22 0 0)
(-3.21879e-19 0 0)
(3.99605e-21 0 0)
(3.09029e-17 0 0)
(2.3836e-16 0 0)
(-1.99112e-19 -1.30104e-17 0)
(-2.30014e-16 0 0)
(-3.59675e-17 0 0)
(-2.56559e-17 0 0)
(7.08099e-22 0 0)
(1.41612e-17 0 0)
(1.14184e-16 -4.33679e-18 0)
(1.10301e-12 4.77047e-16 0)
(1.40677e-08 -1.18394e-15 0)
(1.34364e-05 3.71017e-15 0)
(0.00137589 -1.12236e-15 0)
(0.0239807 -2.19738e-15 0)
(0.123561 1.59911e-15 0)
(0.308344 -1.05514e-15 0)
(0.585487 -5.04555e-16 0)
(0.870748 -1.06482e-15 0)
(0.944205 -2.98688e-15 0)
(0.878166 -2.61338e-15 0)
(0.600413 -2.4356e-15 0)
(0.154298 7.87108e-16 0)
(0.00523039 5.83033e-16 0)
(1.50394e-05 -5.0523e-16 0)
(2.6653e-09 8.53264e-16 0)
(7.8169e-14 -2.85144e-16 0)
(-1.93058e-17 2.7105e-17 0)
(-3.23162e-17 0 0)
(2.98106e-17 0 0)
(-5.31653e-17 -2.1684e-18 0)
(-8.85066e-19 -1.02999e-16 0)
(-1.0124e-29 -1.0842e-18 0)
(9.61029e-19 -1.02999e-16 0)
(3.6483e-17 -2.1684e-18 0)
(-6.66351e-17 -9.75778e-18 0)
(3.46479e-17 -1.12757e-16 0)
(6.71572e-17 -1.0842e-17 0)
(3.33013e-19 0 0)
(-6.57214e-17 -6.50519e-18 0)
(-4.2477e-18 -1.0842e-16 0)
(5.15829e-17 -5.42099e-18 0)
(-5.20737e-17 -2.92734e-17 0)
(1.81399e-17 -1.33356e-16 0)
(1.2026e-16 -3.14417e-17 0)
(1.71984e-17 0 0)
(2.24504e-20 -5.31257e-17 0)
(4.43756e-17 3.79469e-17 0)
(-7.45893e-19 4.11995e-17 0)
(8.32007e-24 3.46943e-17 0)
(-2.02502e-18 0 0)
(-4.73188e-17 0 0)
(-1.67704e-17 -2.1684e-18 0)
(5.45356e-17 1.10588e-16 0)
(2.69079e-20 2.38524e-17 0)
(-4.44623e-17 0 0)
(-1.72009e-16 5.20415e-17 0)
(-1.30861e-16 -5.09573e-17 0)
(-2.83398e-17 1.84314e-17 0)
(2.58257e-17 -1.2902e-16 0)
(1.72549e-16 -1.51788e-16 0)
(1.94417e-16 -2.1684e-17 0)
(2.50751e-17 4.22837e-17 0)
(-5.32645e-17 3.57785e-17 0)
(-1.92052e-16 -6.83045e-17 0)
(-1.46543e-16 -1.6263e-16 0)
(-7.82145e-18 -1.68051e-16 0)
(-7.80623e-17 -1.76724e-16 0)
(0 0 0)
(5.14832e-20 0 0)
(6.369e-18 -5.63783e-17 0)
(-1.07477e-17 -2.81892e-16 0)
(-4.16832e-17 -7.80623e-17 0)
(-1.64099e-20 0 0)
(1.92491e-19 0 0)
(3.06686e-19 0 0)
(-3.73704e-19 0 0)
(8.97757e-17 0 0)
(3.38013e-16 0 0)
(2.38228e-18 5.20415e-17 0)
(-3.45212e-16 0 0)
(-8.8484e-17 -4.77047e-17 0)
(2.84123e-17 0 0)
(6.43399e-18 -9.32411e-17 0)
(-6.72708e-17 0 0)
(-2.34462e-19 0 0)
(-5.01736e-21 -4.98731e-17 0)
(-1.85768e-20 0 0)
(1.52271e-17 0 0)
(-1.69013e-18 -9.32411e-17 0)
(-4.46049e-17 -4.33679e-17 0)
(-6.16754e-21 0 0)
(9.96017e-21 0 0)
(-5.43877e-24 0 0)
(-2.05256e-25 0 0)
(2.10596e-24 0 0)
(-5.76813e-22 0 0)
(-3.29953e-23 0 0)
(-1.05917e-19 0 0)
(-1.45487e-17 0 0)
(1.58556e-19 -4.33679e-17 0)
(1.64435e-17 0 0)
(3.76357e-17 -4.98731e-17 0)
(-1.29943e-18 -2.7105e-16 0)
(-2.98216e-17 -4.98731e-17 0)
(1.1259e-21 0 0)
(-9.48416e-20 0 0)
(3.51636e-19 0 0)
(-4.52695e-17 0 0)
(1.07004e-16 -2.12503e-16 0)
(1.10269e-12 -2.99239e-16 0)
(1.40677e-08 -4.77047e-16 0)
(1.34364e-05 1.05602e-15 0)
(0.00137589 1.21788e-15 0)
(0.0239807 6.19602e-17 0)
(0.123561 7.25446e-16 0)
(0.308344 -5.68707e-16 0)
(0.585487 -6.786e-16 0)
(0.870748 3.99227e-16 0)
(0.944205 5.50395e-16 0)
(0.878166 5.55319e-17 0)
(0.600413 3.09722e-16 0)
(0.154298 2.08386e-15 0)
(0.00523039 -1.00951e-15 0)
(1.50394e-05 -4.77041e-17 0)
(2.6653e-09 3.19838e-16 0)
(7.84917e-14 -5.31257e-17 0)
(-7.59842e-17 0 0)
(-6.38299e-17 0 0)
(4.91197e-17 0 0)
(-5.18595e-17 0 0)
(-4.32714e-18 -2.1684e-18 0)
(-7.35797e-27 -1.6263e-17 0)
(4.77905e-18 -2.1684e-18 0)
(3.5521e-18 0 0)
(-8.59014e-17 -5.20415e-17 0)
(8.57947e-17 -1.0842e-17 0)
(1.99601e-16 0 0)
(9.0796e-18 5.20415e-17 0)
(-1.83759e-16 0 0)
(-2.69716e-17 -6.50519e-18 0)
(5.68881e-17 -2.27682e-17 0)
(-4.74004e-17 0 0)
(9.61862e-19 -1.84314e-17 0)
(9.29356e-17 0 0)
(-2.82028e-17 0 0)
(2.01274e-18 0 0)
(1.28588e-16 0 0)
(1.48084e-17 0 0)
(-8.35677e-22 0 0)
(-1.28489e-17 0 0)
(-1.27239e-16 0 0)
(5.04873e-19 0 0)
(1.36486e-16 0 0)
(3.16825e-18 0 0)
(-4.02906e-17 0 0)
(-1.75609e-16 0 0)
(-6.60318e-17 0 0)
(-1.19103e-17 -2.1684e-18 0)
(-4.3935e-17 -2.05998e-17 0)
(1.12463e-16 -4.22837e-17 0)
(2.01821e-16 0 0)
(1.04417e-17 0 0)
(-1.54433e-16 0 0)
(-2.07236e-16 8.67359e-18 0)
(-6.68007e-17 -5.31257e-17 0)
(3.87002e-18 -3.25259e-17 0)
(0 -3.90311e-17 0)
(0 4.11995e-17 0)
(1.83357e-18 0 0)
(-7.89904e-19 0 0)
(-2.79721e-17 -9.32411e-17 0)
(-4.30255e-19 0 0)
(5.55999e-20 0 0)
(1.06061e-17 0 0)
(9.10333e-18 3.03576e-17 0)
(-1.58833e-17 0 0)
(7.82568e-17 -2.1684e-18 0)
(3.2762e-16 0 0)
(-5.88194e-18 0 0)
(-3.40256e-16 0 0)
(-5.70278e-17 -1.0842e-17 0)
(9.42e-17 0 0)
(1.0842e-17 9.32411e-17 0)
(-1.02796e-16 2.60208e-17 0)
(-1.14072e-17 0 0)
(-2.67487e-19 0 0)
(8.6415e-20 0 0)
(7.58957e-17 0 0)
(-1.53007e-18 9.32411e-17 0)
(-8.06038e-17 0 0)
(-3.97765e-19 0 0)
(1.64213e-19 0 0)
(-8.89382e-21 0 0)
(-9.37618e-22 0 0)
(5.23268e-21 0 0)
(-2.22522e-19 0 0)
(-8.08371e-21 0 0)
(-4.8192e-18 0 0)
(-9.63326e-17 -6.50519e-17 0)
(9.37856e-19 -2.55871e-16 0)
(1.01824e-16 -6.72203e-17 0)
(2.69249e-18 0 0)
(-6.05697e-18 -4.77047e-17 0)
(4.40612e-18 0 0)
(-7.40928e-19 0 0)
(7.15821e-19 0 0)
(1.68279e-17 0 0)
(-1.29386e-16 7.80623e-17 0)
(1.01106e-16 0 0)
(1.10269e-12 4.77047e-17 0)
(1.40677e-08 1.36609e-16 0)
(1.34364e-05 -5.39937e-16 0)
(0.00137589 -5.05823e-16 0)
(0.0239807 2.55365e-15 0)
(0.123561 -5.59148e-16 0)
(0.308344 1.18649e-15 0)
(0.585487 1.15678e-15 0)
(0.870748 1.07466e-15 0)
(0.944205 1.54014e-15 0)
(0.878166 5.69322e-16 0)
(0.600413 6.96545e-16 0)
(0.154298 4.77853e-16 0)
(0.00523039 -5.10693e-16 0)
(1.50394e-05 6.5051e-17 0)
(2.6653e-09 -2.12503e-16 0)
(7.82326e-14 -6.83045e-17 0)
(-1.71008e-17 0 0)
(-3.30572e-17 -2.27682e-17 0)
(-7.37066e-18 0 0)
(-1.10471e-16 -3.46943e-17 0)
(-4.04626e-17 -2.05998e-17 0)
(-4.86242e-25 -1.31188e-16 0)
(4.10498e-17 -1.84314e-17 0)
(2.58184e-17 0 0)
(-8.96297e-17 5.20415e-17 0)
(6.63783e-17 0 0)
(1.49553e-16 -1.95156e-17 0)
(-5.61899e-23 -5.20415e-17 0)
(-1.49263e-16 -2.38524e-17 0)
(-1.83451e-17 -3.25259e-18 0)
(6.69705e-17 -1.38777e-16 0)
(-3.75098e-17 -3.68627e-17 0)
(2.36693e-17 0 0)
(1.60539e-16 -3.90311e-17 0)
(2.53434e-17 -1.19262e-17 0)
(-7.20144e-19 1.05167e-16 0)
(-6.25716e-18 1.0842e-18 0)
(2.1515e-19 -4.11995e-17 0)
(4.57829e-20 -2.92734e-17 0)
(1.39348e-17 -2.27682e-17 0)
(-7.65257e-18 0 0)
(2.64679e-18 5.20415e-17 0)
(3.51378e-17 0 0)
(4.13341e-20 0 0)
(-3.98178e-17 0 0)
(-1.73025e-16 0 0)
(-1.66554e-16 -4.33679e-18 0)
(-5.77988e-17 -1.11672e-16 0)
(2.04266e-17 -1.0842e-18 0)
(1.74429e-16 0 0)
(1.74177e-16 0 0)
(3.25509e-17 -3.14417e-17 0)
(-3.2971e-17 1.6263e-17 0)
(-1.75881e-16 1.58293e-16 0)
(-1.72942e-16 3.68627e-17 0)
(-3.06336e-17 1.73472e-17 0)
(0 1.95156e-17 0)
(9.54094e-17 2.51534e-16 0)
(9.28404e-18 6.93887e-17 0)
(-6.62039e-18 9.32411e-17 0)
(-1.09476e-16 -9.10727e-17 0)
(-1.57743e-17 2.1684e-18 0)
(6.25146e-18 0 0)
(1.00068e-16 4.77047e-17 0)
(2.288e-17 2.40692e-16 0)
(-1.17402e-16 5.63783e-17 0)
(1.2922e-16 5.20415e-17 0)
(2.12764e-16 1.10588e-16 0)
(-5.55889e-18 -1.10588e-16 0)
(-1.91502e-16 -8.67359e-18 0)
(-4.1348e-18 -1.92987e-16 0)
(1.89633e-16 -4.33679e-18 0)
(3.70467e-17 -6.50519e-18 0)
(-2.03885e-16 2.36355e-16 0)
(-1.13085e-16 1.95156e-17 0)
(-1.06349e-17 0 0)
(5.04909e-18 0 0)
(1.9017e-16 0 0)
(-6.13383e-18 -4.33679e-18 0)
(-1.92201e-16 0 0)
(-4.82817e-18 0 0)
(5.9366e-19 0 0)
(-1.4642e-18 0 0)
(-3.33601e-19 0 0)
(6.71209e-19 0 0)
(-1.03271e-17 0 0)
(-5.19868e-19 0 0)
(-2.51747e-17 0 0)
(-2.30108e-16 0 0)
(7.7356e-18 0 0)
(2.51737e-16 0 0)
(1.85862e-17 0 0)
(-4.89221e-17 0 0)
(5.50216e-17 0 0)
(-1.77317e-17 0 0)
(2.79514e-17 -6.50519e-18 0)
(1.17168e-16 7.37255e-17 0)
(2.64467e-20 2.77555e-16 0)
(-3.45345e-17 1.86482e-16 0)
(1.10269e-12 2.14671e-16 0)
(1.40677e-08 5.74625e-16 0)
(1.34364e-05 -3.91617e-15 0)
(0.00137589 -2.42491e-15 0)
(0.0239807 3.87583e-15 0)
(0.123561 -1.63527e-15 0)
(0.308344 1.56322e-15 0)
(0.585487 2.52981e-15 0)
(0.870748 1.28264e-15 0)
(0.944205 1.39824e-15 0)
(0.878166 7.24329e-16 0)
(0.600413 1.14202e-15 0)
(0.154298 -1.76401e-15 0)
(0.00523039 -3.1473e-15 0)
(1.50394e-05 4.56441e-16 0)
(2.6653e-09 -5.35594e-16 0)
(7.85565e-14 -2.43945e-16 0)
(-8.96665e-17 -3.46943e-17 0)
(-6.01815e-17 -1.35525e-16 0)
(4.34662e-17 -3.57785e-17 0)
(-3.67232e-17 -1.35525e-16 0)
(-1.20101e-16 -3.46943e-17 0)
(-2.2664e-23 -2.92734e-17 0)
(1.18952e-16 0 0)
(7.51254e-17 -5.63783e-17 0)
(-2.91118e-17 4.66205e-17 0)
(-2.77809e-17 -9.75778e-18 0)
(1.9482e-17 -1.47451e-16 0)
(-4.8744e-21 -4.66205e-17 0)
(-2.33886e-17 -1.47451e-16 0)
(-3.33177e-17 -3.68627e-17 0)
(8.16441e-17 -1.40946e-17 0)
(-2.17427e-17 0 0)
(-7.38876e-18 -2.81892e-17 0)
(1.12209e-16 -1.48535e-16 0)
(7.29975e-17 -1.35525e-16 0)
(-2.7856e-18 -1.0842e-17 0)
(-5.23976e-17 -1.30104e-16 0)
(-1.72736e-20 -1.74556e-16 0)
(8.38784e-19 -1.56125e-16 0)
(4.68937e-17 -1.48535e-16 0)
(1.2978e-17 -4.55363e-17 0)
(8.9796e-18 -5.20415e-17 0)
(4.2492e-17 0 0)
(-1.72704e-18 0 0)
(-8.63528e-18 -2.60208e-17 0)
(-1.5163e-16 0 0)
(-1.89643e-16 1.19262e-16 0)
(-5.48341e-17 4.33679e-18 0)
(1.46465e-17 0 0)
(1.39724e-16 8.02307e-17 0)
(1.26856e-16 -8.02307e-17 0)
(2.77186e-17 -1.58293e-16 0)
(2.67875e-17 -2.60208e-17 0)
(-1.32337e-16 1.40946e-17 0)
(-1.38408e-16 1.50704e-16 0)
(-3.5971e-17 1.56125e-16 0)
(-1.09504e-16 1.49619e-16 0)
(2.77555e-16 6.93887e-17 0)
(4.12501e-17 7.37255e-17 0)
(-3.24513e-17 0 0)
(-2.55432e-16 5.85467e-17 0)
(-4.62418e-17 -7.58939e-17 0)
(7.79224e-17 5.63783e-17 0)
(2.73469e-16 9.97462e-17 0)
(3.21882e-17 5.63783e-17 0)
(-2.84619e-16 9.97462e-17 0)
(2.63538e-16 2.81892e-16 0)
(-3.5521e-17 -2.1684e-18 0)
(-2.20478e-16 -1.8865e-16 0)
(-7.39957e-17 -4.33679e-18 0)
(-1.11202e-16 -2.1684e-18 0)
(1.56395e-16 -2.1684e-18 0)
(2.68198e-16 -2.4286e-16 0)
(-1.73508e-17 3.25259e-17 0)
(-2.91355e-16 9.97462e-17 0)
(-5.38801e-17 -2.1684e-18 0)
(5.36248e-17 5.42099e-17 0)
(-9.82011e-17 -1.0842e-17 0)
(-3.33958e-17 -2.10334e-16 0)
(7.02453e-17 -1.95156e-17 0)
(8.98938e-17 5.20415e-17 0)
(7.27541e-19 9.10727e-17 0)
(-3.47621e-17 2.38524e-17 0)
(-1.42618e-17 0 0)
(7.13078e-18 0 0)
(-9.02852e-17 2.60208e-17 0)
(-9.75855e-18 -4.33679e-18 0)
(7.77112e-17 0 0)
(-2.23103e-17 7.80623e-17 0)
(4.35498e-17 2.94902e-16 0)
(8.02778e-18 6.07151e-17 0)
(-5.42695e-17 0 0)
(-6.93862e-17 -9.75778e-17 0)
(1.14379e-16 0 0)
(-6.57211e-17 -8.67359e-18 0)
(1.03682e-16 -1.92987e-16 0)
(2.88124e-16 -1.0842e-17 0)
(1.19361e-18 0 0)
(-2.19902e-16 2.1684e-18 0)
(1.10297e-12 4.33679e-18 0)
(1.40677e-08 2.4286e-16 0)
(1.34364e-05 -4.42141e-15 0)
(0.00137589 1.76061e-15 0)
(0.0239807 -3.35249e-16 0)
(0.123561 3.94055e-16 0)
(0.308344 -4.71998e-16 0)
(0.585487 -2.4964e-16 0)
(0.870748 5.26179e-16 0)
(0.944205 1.21504e-15 0)
(0.878166 1.37333e-15 0)
(0.600413 7.75623e-16 0)
(0.154298 -1.25244e-16 0)
(0.00523039 -1.80308e-15 0)
(1.50394e-05 1.71409e-15 0)
(2.6653e-09 -8.82537e-16 0)
(7.86374e-14 -1.30104e-17 0)
(-8.66593e-17 0 0)
(-4.38646e-17 0 0)
(-8.53242e-18 0 0)
(-1.0912e-16 -8.02307e-17 0)
(-8.33857e-18 0 0)
(-9.00581e-21 -4.01153e-17 0)
(5.23758e-18 -2.7105e-17 0)
(1.08099e-16 -1.2902e-16 0)
(3.79075e-17 -8.99885e-17 0)
(-7.38303e-17 5.52941e-17 0)
(2.82929e-17 -4.66205e-17 0)
(-8.31979e-20 0 0)
(-4.12527e-17 -9.21569e-17 0)
(6.28104e-17 0 0)
(3.68294e-17 1.95156e-17 0)
(-6.92105e-17 -8.45675e-17 0)
(-1.24198e-16 1.84314e-17 0)
(3.16243e-17 -7.04729e-17 0)
(1.647e-16 -3.36101e-17 0)
(-4.818e-18 0 0)
(-1.45495e-16 -1.34441e-16 0)
(-1.32648e-17 -8.67359e-17 0)
(9.13142e-18 -3.03576e-17 0)
(1.14584e-16 -6.28835e-17 0)
(4.59187e-17 -1.52872e-16 0)
(4.79313e-17 -2.81892e-17 0)
(9.82679e-17 0 0)
(-1.70315e-17 -3.68627e-17 0)
(4.17999e-18 -1.52872e-16 0)
(1.19077e-17 0 0)
(-1.41108e-16 1.34441e-16 0)
(-1.15398e-16 1.69135e-16 0)
(1.45749e-17 4.22837e-17 0)
(3.69161e-17 0 0)
(-1.00033e-17 -7.80623e-17 0)
(9.17017e-17 -1.33356e-16 0)
(1.35185e-16 -3.25259e-17 0)
(-2.79041e-18 -3.25259e-17 0)
(-5.04832e-17 4.66205e-17 0)
(-8.36297e-17 4.22837e-17 0)
(-2.11419e-16 4.66205e-17 0)
(1.99492e-16 7.37255e-17 0)
(1.82653e-17 2.53702e-16 0)
(-1.10909e-16 7.37255e-17 0)
(-9.1165e-17 2.53702e-16 0)
(5.3337e-18 1.12757e-16 0)
(1.89426e-16 2.92734e-16 0)
(9.06281e-17 2.8406e-16 0)
(-1.18605e-18 6.28835e-17 0)
(-7.97099e-17 1.97324e-16 0)
(-5.42447e-17 4.33679e-18 0)
(-1.90247e-16 -2.38524e-16 0)
(1.75656e-17 -3.03576e-17 0)
(-1.47307e-16 1.79977e-16 0)
(-5.14107e-17 2.73218e-16 0)
(1.60683e-16 6.72203e-17 0)
(8.77468e-17 -6.07151e-17 0)
(4.60044e-17 4.33679e-17 0)
(-1.91994e-16 2.81892e-16 0)
(-9.97298e-18 1.01915e-16 0)
(1.04319e-16 2.81892e-16 0)
(-1.07677e-16 1.7564e-16 0)
(-8.59063e-17 6.28835e-17 0)
(7.28883e-17 5.63783e-17 0)
(2.49022e-16 2.94902e-16 0)
(-1.36078e-19 3.40438e-16 0)
(-1.12017e-16 2.27682e-16 0)
(-1.17247e-16 2.81892e-17 0)
(1.10498e-17 6.50519e-17 0)
(-1.72468e-16 2.45029e-16 0)
(-8.04515e-17 4.33679e-18 0)
(1.72729e-16 0 0)
(3.97018e-17 0 0)
(1.56665e-16 8.23991e-17 0)
(-2.82356e-17 2.64544e-16 0)
(-2.137e-16 8.23991e-17 0)
(-5.05701e-19 9.54094e-17 0)
(8.42134e-17 2.1684e-18 0)
(-1.00162e-16 1.84314e-16 0)
(-4.97989e-17 -4.33679e-17 0)
(1.98564e-16 -8.89043e-17 0)
(1.68425e-17 -2.73218e-16 0)
(-3.42243e-17 -1.8865e-16 0)
(1.10273e-12 -2.19008e-16 0)
(1.40677e-08 -5.39931e-16 0)
(1.34364e-05 -8.47853e-16 0)
(0.00137589 2.11881e-15 0)
(0.0239807 -4.25755e-15 0)
(0.123561 1.61237e-15 0)
(0.308344 4.61894e-17 0)
(0.585487 7.73534e-17 0)
(0.870748 4.05131e-16 0)
(0.944205 -4.85053e-17 0)
(0.878166 -5.2538e-16 0)
(0.600413 -8.25047e-16 0)
(0.154298 -6.55121e-16 0)
(0.00523039 2.67763e-16 0)
(1.50394e-05 -4.60778e-16 0)
(2.66531e-09 -5.82214e-16 0)
(7.85829e-14 2.8406e-16 0)
(-7.59194e-17 8.67359e-18 0)
(-1.30388e-16 1.5504e-16 0)
(-2.76959e-17 5.20415e-17 0)
(-5.53988e-17 8.02307e-17 0)
(-5.80632e-17 -1.0842e-18 0)
(-2.4631e-19 -1.50704e-16 0)
(4.39633e-17 -2.38524e-17 0)
(1.58223e-17 2.1684e-17 0)
(1.17753e-16 -8.13149e-17 0)
(1.73816e-17 0 0)
(-1.07029e-16 9.10727e-17 0)
(-4.95068e-18 0 0)
(-1.68201e-17 9.21569e-17 0)
(8.894e-17 0 0)
(2.29892e-17 -8.34833e-17 0)
(-9.15879e-17 9.75778e-18 0)
(-2.16404e-17 1.2143e-16 0)
(9.87157e-17 7.04729e-17 0)
(7.19172e-17 0 0)
(-6.77708e-17 -8.56517e-17 0)
(-7.3598e-17 4.33679e-17 0)
(5.59312e-17 8.67359e-17 0)
(-3.26732e-35 0 0)
(-8.19632e-18 6.28835e-17 0)
(9.78383e-17 -3.36101e-17 0)
(1.39151e-16 0 0)
(6.90676e-18 0 0)
(-1.3424e-16 -1.18178e-16 0)
(1.35359e-17 0 0)
(1.20108e-16 0 0)
(-2.68304e-18 -2.81892e-17 0)
(-1.39619e-16 1.09504e-16 0)
(-8.70596e-17 0 0)
(5.13201e-17 0 0)
(1.25451e-17 7.80623e-17 0)
(1.15453e-16 5.09573e-17 0)
(7.9233e-17 -9.97462e-17 0)
(-8.25358e-17 -1.33356e-16 0)
(-1.21537e-16 -1.73472e-17 0)
(-2.0802e-17 0 0)
(-1.17093e-16 0 0)
(3.85975e-16 -1.10588e-16 0)
(5.12147e-17 -1.0842e-17 0)
(-2.67894e-16 -7.58939e-17 0)
(-1.61478e-16 7.37255e-17 0)
(1.50069e-16 2.1684e-18 0)
(2.56028e-16 4.11995e-17 0)
(2.53181e-17 0 0)
(-2.45944e-17 -5.63783e-17 0)
(-2.50813e-16 -5.63783e-17 0)
(-2.57457e-16 -2.51534e-16 0)
(-1.61885e-19 -4.11995e-17 0)
(2.26701e-16 2.81892e-16 0)
(-1.99261e-17 4.11995e-17 0)
(-2.32853e-16 9.10727e-17 0)
(-3.11422e-17 -4.33679e-18 0)
(2.72443e-16 2.1684e-18 0)
(1.32954e-16 -4.98731e-17 0)
(-1.3484e-16 0 0)
(2.76531e-27 2.1684e-18 0)
(9.49186e-17 0 0)
(-1.2089e-16 -1.51788e-17 0)
(-1.57248e-16 4.33679e-18 0)
(1.27816e-16 2.1684e-18 0)
(2.85352e-16 2.81892e-17 0)
(-1.32624e-18 0 0)
(-2.82534e-16 -2.1684e-18 0)
(-3.00501e-16 0 0)
(1.95739e-16 0 0)
(-8.95267e-18 -2.1684e-18 0)
(-3.11789e-16 -7.37255e-17 0)
(-1.17691e-17 0 0)
(1.36097e-16 0 0)
(4.15679e-16 0 0)
(4.55613e-17 0 0)
(-3.22439e-16 0 0)
(-1.15254e-17 9.97462e-17 0)
(2.67382e-16 0 0)
(-3.6972e-18 0 0)
(-2.31954e-16 2.58039e-16 0)
(-1.09384e-17 4.11995e-17 0)
(-4.07901e-17 -6.72203e-17 0)
(6.94404e-17 0 0)
(1.10259e-12 -2.12503e-16 0)
(1.40677e-08 -2.38524e-17 0)
(1.34364e-05 2.62379e-15 0)
(0.00137589 -1.66943e-15 0)
(0.0239807 -1.83225e-15 0)
(0.123561 3.85619e-17 0)
(0.308344 -2.02078e-16 0)
(0.585487 -4.92249e-17 0)
(0.870748 5.60951e-17 0)
(0.944205 -9.34028e-17 0)
(0.878166 -8.93339e-17 0)
(0.600413 -6.64255e-16 0)
(0.154298 -1.09829e-15 0)
(0.00523039 -1.21033e-15 0)
(1.50394e-05 -1.65446e-15 0)
(2.66531e-09 1.11456e-15 0)
(7.81775e-14 3.11165e-16 0)