/*--------------------------------*- C++ -*----------------------------------*\
| =========                 |                                                 |
| \\      /  F ield         | OpenFOAM: The Open Source CFD Toolbox           |
|  \\    /   O peration     | Version:  4.1                                   |
|   \\  /    A nd           | Web:      www.OpenFOAM.org                      |
|    \\/     M anipulation  |                                                 |
\*---------------------------------------------------------------------------*/
FoamFile
{
    version     2.0;
    format      ascii;
    class       volVectorField;
    location    "0.23";
    object      U;
}
// * * * * * * * * * * * * * * * * * * * * * * * * * * * * * * * * * * * * * //

dimensions      [0 1 -1 0 0 0 0];

internalField   nonuniform List<vector> 
10000
(
(0 0 0)
(1.07315e-16 0 0)
(2.70644e-16 0 0)
(7.8273e-17 1.43114e-16 0)
(-1.14173e-16 0 0)
(-2.08744e-16 0 0)
(-2.0738e-16 0 0)
(-3.07269e-17 0 0)
(-2.2892e-25 0 0)
(1.68926e-16 1.36609e-16 0)
(3.98967e-16 0 0)
(8.33224e-17 -1.53956e-16 0)
(-2.72842e-16 0 0)
(4.61733e-18 0 0)
(1.56343e-16 0 0)
(-3.70961e-17 1.27935e-16 0)
(-2.31614e-16 0 0)
(-9.39759e-17 0 0)
(-1.21064e-17 0 0)
(-1.10557e-16 0 0)
(3.5787e-19 0 0)
(6.69814e-17 1.10588e-16 0)
(1.82781e-17 0 0)
(9.77501e-17 0 0)
(-6.94405e-17 0 0)
(-2.29406e-16 0 0)
(-3.40969e-16 -1.17093e-16 0)
(-4.0252e-17 1.12757e-16 0)
(2.9272e-16 8.89043e-17 0)
(3.87552e-16 2.66713e-16 0)
(5.11972e-12 5.44268e-16 0)
(1.77266e-08 -8.37001e-16 0)
(6.65413e-06 1.06252e-15 0)
(0.000383456 1.58344e-15 0)
(0.0051029 9.54308e-15 0)
(0.0244039 3.35834e-15 0)
(0.0624583 -7.36393e-15 0)
(0.113224 4.57367e-15 0)
(0.170401 1.02675e-15 0)
(0.230789 2.18248e-14 0)
(0.293024 3.06658e-14 0)
(0.356495 2.25212e-14 0)
(0.420916 9.68312e-15 0)
(0.486175 1.43168e-14 0)
(0.552259 1.91952e-14 0)
(0.619197 1.79815e-14 0)
(0.686982 -3.30626e-15 0)
(0.75516 -1.97821e-14 0)
(0.822682 -2.18926e-16 0)
(0.884274 1.39483e-14 0)
(0.929364 8.78807e-15 0)
(0.941506 8.85268e-15 0)
(0.924161 7.87791e-15 0)
(0.925576 7.87348e-15 0)
(0.926818 4.59955e-15 0)
(0.927054 4.4111e-15 0)
(0.927321 3.50194e-15 0)
(0.927628 2.8812e-15 0)
(0.928241 5.33339e-15 0)
(0.929035 5.95825e-15 0)
(0.929916 5.0944e-15 0)
(0.932322 4.61804e-15 0)
(0.92819 3.92104e-15 0)
(0.920162 3.84099e-15 0)
(0.925155 1.29472e-15 0)
(0.929645 -4.94374e-16 0)
(0.934629 -4.80437e-15 0)
(0.934161 -7.65798e-15 0)
(0.920271 -7.40439e-15 0)
(0.826248 -5.90509e-15 0)
(0.47606 -3.02573e-15 0)
(0.064735 -1.93081e-16 0)
(0.000809073 1.73347e-16 0)
(6.764e-07 1.01806e-15 0)
(2.83278e-11 2.93818e-16 0)
(8.35804e-16 1.19262e-17 0)
(2.58983e-16 0 0)
(4.40428e-17 0 0)
(-1.37989e-16 9.64936e-17 0)
(5.48567e-17 0 0)
(2.57586e-16 0 0)
(5.59294e-17 0 0)
(-1.42456e-16 0 0)
(5.92646e-17 0 0)
(2.54694e-16 9.8662e-17 0)
(7.55327e-17 0 0)
(-1.63641e-16 0 0)
(-5.81533e-17 0 0)
(-5.38999e-17 0 0)
(-1.54214e-16 0 0)
(-2.28442e-16 -6.50519e-18 0)
(-3.81036e-16 0 0)
(-1.73734e-16 4.66205e-17 0)
(6.35499e-17 0 0)
(2.737e-16 0 0)
(5.51941e-17 0 0)
(-1.81627e-16 9.21569e-17 0)
(-2.0827e-16 3.14417e-17 0)
(-1.15639e-16 0 0)
(0 4.55363e-17 0)
(0 0 0)
(1.45794e-16 0 0)
(2.84962e-16 1.34441e-16 0)
(9.22229e-17 3.27428e-16 0)
(-1.29084e-16 1.25767e-16 0)
(-2.95157e-16 2.47197e-16 0)
(-2.63725e-16 4.98731e-17 0)
(-3.32028e-17 0 0)
(-9.71939e-23 0 0)
(1.90583e-16 0 0)
(4.72811e-16 0 0)
(1.2965e-16 0 0)
(-2.28409e-16 0 0)
(3.65455e-17 0 0)
(1.57864e-16 1.30104e-16 0)
(-4.20601e-17 3.12249e-16 0)
(-2.44936e-16 1.27935e-16 0)
(-1.31881e-16 0 0)
(-3.28656e-17 0 0)
(-1.8313e-16 0 0)
(1.40564e-19 0 0)
(1.01274e-16 2.1684e-18 0)
(3.69686e-17 0 0)
(1.0993e-16 1.45283e-16 0)
(-1.12575e-16 3.31765e-16 0)
(-3.07059e-16 1.36609e-16 0)
(-2.34183e-16 9.10727e-17 0)
(-3.24741e-17 2.90565e-16 0)
(1.83349e-16 9.75778e-17 0)
(3.7239e-16 4.77047e-17 0)
(5.1208e-12 2.9707e-16 0)
(1.77266e-08 -3.03576e-16 0)
(6.65413e-06 2.19226e-15 0)
(0.000383456 3.22328e-15 0)
(0.0051029 1.45476e-14 0)
(0.0244039 -5.63303e-15 0)
(0.0624583 9.15917e-15 0)
(0.113224 5.72874e-15 0)
(0.170401 -5.66093e-16 0)
(0.230789 2.92025e-14 0)
(0.293024 -4.42417e-15 0)
(0.356495 1.82307e-14 0)
(0.420916 2.95985e-14 0)
(0.486175 8.36759e-15 0)
(0.552259 9.36208e-15 0)
(0.619197 8.70131e-15 0)
(0.686982 1.16544e-14 0)
(0.75516 -3.53632e-15 0)
(0.822682 3.36297e-15 0)
(0.884274 1.03484e-14 0)
(0.929364 1.28187e-14 0)
(0.941506 7.5676e-15 0)
(0.924161 4.74806e-15 0)
(0.925576 9.86269e-15 0)
(0.926818 5.39215e-15 0)
(0.927054 3.44238e-15 0)
(0.927321 2.19792e-15 0)
(0.927628 1.96462e-15 0)
(0.928241 4.14992e-15 0)
(0.929035 3.08035e-15 0)
(0.929916 5.75616e-15 0)
(0.932322 8.11272e-15 0)
(0.92819 7.00424e-15 0)
(0.920162 6.33781e-15 0)
(0.925155 3.66306e-15 0)
(0.929645 1.14909e-15 0)
(0.934629 -1.97568e-15 0)
(0.934161 -1.80311e-15 0)
(0.920271 -3.641e-15 0)
(0.826248 -2.18443e-15 0)
(0.47606 -2.70202e-15 0)
(0.064735 -2.30054e-16 0)
(0.000809073 2.49186e-17 0)
(6.764e-07 7.52433e-16 0)
(2.83276e-11 2.23345e-16 0)
(8.04912e-16 1.90819e-16 0)
(1.94742e-16 8.13149e-17 0)
(-4.59222e-18 5.42099e-17 0)
(-1.56015e-16 2.08166e-16 0)
(1.47185e-17 3.90311e-17 0)
(2.16186e-16 1.40946e-17 0)
(4.56827e-17 0 0)
(-1.39387e-16 6.28835e-17 0)
(5.89541e-17 1.56125e-16 0)
(2.64226e-16 2.01661e-16 0)
(8.15645e-17 2.05998e-17 0)
(-1.79019e-16 0 0)
(-8.20043e-17 0 0)
(-8.72007e-17 0 0)
(-1.92154e-16 -6.50519e-18 0)
(-1.40141e-16 -1.73472e-17 0)
(-2.52618e-16 1.24683e-16 0)
(-1.31262e-16 2.48281e-16 0)
(5.64409e-17 7.26413e-17 0)
(2.66507e-16 0 0)
(4.2991e-17 1.95156e-17 0)
(-2.05817e-16 2.08166e-16 0)
(-2.89657e-16 2.34187e-16 0)
(-1.97592e-16 1.61546e-16 0)
(-1.6263e-16 2.54787e-16 0)
(0 0 0)
(2.19063e-16 0 0)
(5.2256e-16 0 0)
(1.12145e-16 9.54094e-17 0)
(-3.67786e-16 3.44775e-16 0)
(-3.24625e-16 5.72457e-16 0)
(-2.8088e-16 2.40692e-16 0)
(-2.96162e-17 0 0)
(-1.22338e-20 0 0)
(2.31722e-16 0 0)
(5.44676e-16 0 0)
(1.95895e-16 2.1684e-18 0)
(-1.35365e-16 3.03576e-17 0)
(8.56834e-17 2.47197e-16 0)
(3.19215e-16 1.04083e-16 0)
(-4.79486e-17 7.37255e-17 0)
(-4.09177e-16 0 0)
(-1.63318e-16 0 0)
(-7.34094e-17 1.01915e-16 0)
(-2.56236e-16 0 0)
(-1.16373e-18 0 0)
(1.97405e-16 0 0)
(7.25751e-17 8.67359e-17 0)
(1.6142e-16 4.18501e-16 0)
(-1.04821e-16 6.83045e-16 0)
(-3.94521e-16 3.96817e-16 0)
(-3.92569e-16 6.28835e-17 0)
(-4.23192e-17 6.28835e-17 0)
(2.86118e-16 0 0)
(4.25336e-16 0 0)
(5.12054e-12 5.2692e-16 0)
(1.77266e-08 1.12323e-15 0)
(6.65413e-06 3.68196e-15 0)
(0.000383456 6.13421e-15 0)
(0.0051029 1.536e-14 0)
(0.0244039 -1.88174e-16 0)
(0.0624583 1.22568e-14 0)
(0.113224 6.45737e-15 0)
(0.170401 -4.16223e-15 0)
(0.230789 3.26564e-14 0)
(0.293024 -1.29817e-14 0)
(0.356495 1.11888e-14 0)
(0.420916 3.18906e-14 0)
(0.486175 3.07789e-15 0)
(0.552259 5.15649e-15 0)
(0.619197 5.92187e-15 0)
(0.686982 1.32904e-14 0)
(0.75516 -1.7193e-15 0)
(0.822682 6.29153e-15 0)
(0.884274 9.73722e-15 0)
(0.929364 4.72878e-15 0)
(0.941506 5.84277e-15 0)
(0.924161 3.48056e-15 0)
(0.925576 1.01369e-14 0)
(0.926818 4.90635e-15 0)
(0.927054 1.49888e-15 0)
(0.927321 6.35927e-16 0)
(0.927628 5.14372e-16 0)
(0.928241 1.33986e-15 0)
(0.929035 6.60384e-16 0)
(0.929916 3.54778e-15 0)
(0.932322 7.09101e-15 0)
(0.92819 6.79176e-15 0)
(0.920162 1.01447e-14 0)
(0.925155 5.17168e-15 0)
(0.929645 4.04595e-15 0)
(0.934629 -6.62654e-16 0)
(0.934161 -1.23788e-16 0)
(0.920271 -1.71669e-15 0)
(0.826248 2.51827e-15 0)
(0.47606 -3.73967e-16 0)
(0.064735 6.86053e-16 0)
(0.000809073 -3.75946e-16 0)
(6.764e-07 -7.80622e-17 0)
(2.83279e-11 2.21176e-16 0)
(8.01157e-16 3.95732e-16 0)
(2.06435e-16 3.00323e-16 0)
(1.22237e-17 1.68051e-16 0)
(-2.0473e-16 2.12503e-16 0)
(-6.28173e-17 2.75386e-16 0)
(1.44243e-16 2.68881e-16 0)
(1.62295e-16 1.95156e-16 0)
(6.11066e-17 3.22007e-16 0)
(1.63295e-16 3.46943e-16 0)
(1.59516e-16 1.36609e-16 0)
(-2.18204e-17 -8.13149e-17 0)
(-1.67967e-16 -1.0842e-17 0)
(-1.01399e-16 9.10727e-17 0)
(-1.33841e-16 -9.75778e-18 0)
(-2.35582e-16 9.32411e-17 0)
(-1.07499e-16 9.75778e-17 0)
(-7.75111e-17 3.00323e-16 0)
(-1.39221e-16 4.51026e-16 0)
(1.09037e-17 3.52364e-16 0)
(1.87823e-16 1.76724e-16 0)
(6.6484e-17 5.09573e-17 0)
(-1.61617e-16 2.33103e-16 0)
(-3.66892e-16 4.391e-16 0)
(-2.70209e-16 3.52364e-16 0)
(-3.62122e-16 4.54279e-16 0)
(-2.1684e-18 -2.1684e-18 0)
(2.80083e-16 -2.1684e-18 0)
(6.13974e-16 -2.1684e-18 0)
(2.36164e-16 3.90311e-17 0)
(-2.53863e-16 2.86228e-16 0)
(-6.28992e-16 1.79977e-16 0)
(-3.16323e-16 -2.1684e-18 0)
(-1.99423e-17 -2.1684e-18 0)
(-4.40582e-19 0 0)
(1.11588e-16 0 0)
(3.65926e-16 -4.33679e-18 0)
(1.93201e-16 -1.6263e-16 0)
(1.89005e-16 2.01661e-16 0)
(1.8164e-16 5.65951e-16 0)
(2.42275e-16 2.86228e-16 0)
(-5.10438e-17 0 0)
(-3.1977e-16 -2.1684e-18 0)
(-7.64957e-17 1.17093e-16 0)
(-8.91571e-17 3.49112e-16 0)
(-2.67137e-16 1.73472e-16 0)
(-1.16733e-18 0 0)
(2.67435e-16 1.49619e-16 0)
(8.428e-17 3.31765e-16 0)
(2.45103e-16 1.47451e-16 0)
(-9.56332e-17 2.47197e-16 0)
(-4.59933e-16 9.97462e-17 0)
(-4.49956e-16 -4.33679e-18 0)
(-8.55851e-17 0 0)
(2.58162e-16 -2.1684e-18 0)
(6.34472e-16 0 0)
(5.12237e-12 1.25116e-15 0)
(1.77266e-08 2.23779e-15 0)
(6.65413e-06 8.65195e-16 0)
(0.000383456 7.06042e-15 0)
(0.0051029 1.01267e-14 0)
(0.0244039 6.81852e-15 0)
(0.0624583 8.7258e-15 0)
(0.113224 1.14312e-14 0)
(0.170401 -1.05926e-14 0)
(0.230789 3.11332e-14 0)
(0.293024 -1.37801e-14 0)
(0.356495 4.99797e-15 0)
(0.420916 3.17965e-14 0)
(0.486175 6.31233e-16 0)
(0.552259 2.8899e-15 0)
(0.619197 6.73458e-15 0)
(0.686982 1.17981e-14 0)
(0.75516 3.97339e-16 0)
(0.822682 4.22951e-15 0)
(0.884274 2.23119e-15 0)
(0.929364 -1.0829e-17 0)
(0.941506 4.49781e-15 0)
(0.924161 7.7277e-15 0)
(0.925576 5.13752e-15 0)
(0.926818 3.46675e-15 0)
(0.927054 1.14459e-15 0)
(0.927321 5.5133e-16 0)
(0.927628 -4.35565e-16 0)
(0.928241 -1.26268e-15 0)
(0.929035 5.78106e-16 0)
(0.929916 1.99798e-15 0)
(0.932322 3.62947e-15 0)
(0.92819 7.76948e-15 0)
(0.920162 8.8219e-15 0)
(0.925155 4.90225e-15 0)
(0.929645 3.94215e-15 0)
(0.934629 1.84315e-15 0)
(0.934161 2.24046e-15 0)
(0.920271 8.60411e-16 0)
(0.826248 2.97063e-15 0)
(0.47606 -1.65551e-15 0)
(0.064735 3.85134e-15 0)
(0.000809073 5.09207e-16 0)
(6.764e-07 -4.55363e-17 0)
(2.83277e-11 8.03391e-16 0)
(6.72206e-16 3.96817e-16 0)
(1.08485e-16 4.92226e-16 0)
(-2.84147e-17 3.31765e-16 0)
(-2.06481e-16 3.3827e-16 0)
(-3.05378e-17 5.16078e-16 0)
(1.7098e-16 5.71372e-16 0)
(3.22041e-16 4.20669e-16 0)
(2.57223e-16 5.38847e-16 0)
(2.95092e-17 4.45605e-16 0)
(-1.43407e-16 2.35271e-16 0)
(-2.76063e-17 1.14925e-16 0)
(-3.38822e-18 1.5504e-16 0)
(-1.52325e-16 1.71303e-16 0)
(-2.3555e-16 2.92734e-17 0)
(-1.32361e-16 1.31188e-16 0)
(-3.19519e-17 2.81892e-17 0)
(3.67882e-17 1.48535e-16 0)
(-1.58575e-16 3.41522e-16 0)
(-1.72397e-16 5.46436e-16 0)
(-3.41402e-17 4.1308e-16 0)
(-1.11838e-16 2.34187e-16 0)
(-5.07981e-17 1.22514e-16 0)
(-2.01903e-16 2.61292e-16 0)
(-3.92677e-16 2.00577e-16 0)
(-5.85467e-16 2.33103e-16 0)
(-2.1684e-18 2.1684e-18 0)
(2.92875e-16 2.1684e-18 0)
(6.34689e-16 2.1684e-18 0)
(2.18417e-16 1.66967e-16 0)
(-5.12713e-16 -1.51788e-16 0)
(-5.88512e-16 -5.46436e-16 0)
(-2.62984e-16 -2.40692e-16 0)
(-7.49039e-18 2.1684e-18 0)
(-5.44976e-18 0 0)
(1.33452e-16 -2.1684e-18 0)
(3.98412e-16 2.1684e-17 0)
(2.23214e-16 1.6263e-16 0)
(4.06366e-16 3.25259e-17 0)
(2.22415e-16 2.12503e-16 0)
(2.63303e-16 3.03576e-17 0)
(-5.63964e-17 9.10727e-17 0)
(-3.77725e-16 2.1684e-18 0)
(-9.99156e-17 2.1684e-18 0)
(-1.04484e-16 -1.51788e-17 0)
(-2.87808e-16 0 0)
(4.92641e-17 0 0)
(3.29956e-16 2.60208e-16 0)
(6.68451e-17 3.46943e-17 0)
(-2.33824e-17 -9.97462e-17 0)
(-8.55081e-18 -3.72964e-16 0)
(-1.81644e-16 -1.58293e-16 0)
(-2.06383e-16 -1.14925e-16 0)
(2.14021e-17 0 0)
(9.05234e-17 2.1684e-18 0)
(3.42905e-16 0 0)
(5.12266e-12 -8.76032e-16 0)
(1.77266e-08 1.1319e-15 0)
(6.65413e-06 -4.18503e-16 0)
(0.000383456 1.39907e-15 0)
(0.0051029 2.45437e-15 0)
(0.0244039 8.59732e-15 0)
(0.0624583 1.2681e-15 0)
(0.113224 1.44425e-14 0)
(0.170401 -1.60276e-14 0)
(0.230789 2.64922e-14 0)
(0.293024 -8.26526e-15 0)
(0.356495 -1.68128e-15 0)
(0.420916 3.02496e-14 0)
(0.486175 -2.3817e-16 0)
(0.552259 1.7088e-15 0)
(0.619197 6.10666e-15 0)
(0.686982 5.614e-15 0)
(0.75516 -1.81487e-16 0)
(0.822682 1.3892e-15 0)
(0.884274 4.84299e-16 0)
(0.929364 -1.32018e-15 0)
(0.941506 -5.22147e-16 0)
(0.924161 4.51879e-15 0)
(0.925576 -1.85894e-15 0)
(0.926818 1.68632e-15 0)
(0.927054 1.58634e-15 0)
(0.927321 3.40963e-16 0)
(0.927628 5.09794e-16 0)
(0.928241 -2.6716e-15 0)
(0.929035 -7.96791e-16 0)
(0.929916 7.5624e-16 0)
(0.932322 2.06375e-15 0)
(0.92819 1.02346e-14 0)
(0.920162 2.84369e-15 0)
(0.925155 3.75099e-15 0)
(0.929645 1.52989e-15 0)
(0.934629 3.74566e-15 0)
(0.934161 3.90188e-15 0)
(0.920271 1.75439e-15 0)
(0.826248 3.6372e-15 0)
(0.47606 -4.55708e-15 0)
(0.064735 1.07581e-14 0)
(0.000809073 -5.85046e-17 0)
(6.764e-07 1.21322e-15 0)
(2.8327e-11 1.16226e-15 0)
(7.90472e-16 1.46367e-16 0)
(1.84427e-16 2.86228e-16 0)
(7.1966e-17 2.2985e-16 0)
(-4.48576e-17 3.66459e-16 0)
(1.02574e-16 5.24752e-16 0)
(6.8541e-17 6.62445e-16 0)
(1.93586e-16 5.45352e-16 0)
(6.59146e-17 3.48028e-16 0)
(-1.18261e-16 2.59123e-16 0)
(-1.53498e-16 3.62122e-16 0)
(-2.72179e-17 3.57785e-16 0)
(1.07586e-18 3.49112e-16 0)
(-3.20581e-16 2.02745e-16 0)
(-4.72322e-16 1.65882e-16 0)
(-3.02657e-16 -3.68627e-17 0)
(-7.72657e-18 -1.26851e-16 0)
(2.22963e-16 -1.17093e-16 0)
(9.25718e-17 3.25259e-18 0)
(6.05625e-17 3.40438e-16 0)
(4.15516e-17 5.83299e-16 0)
(-1.72298e-16 4.44521e-16 0)
(-2.69718e-16 8.34833e-17 0)
(-3.65216e-16 -1.35525e-16 0)
(-5.27683e-16 -7.15571e-17 0)
(-6.7654e-16 -1.94071e-16 0)
(0 0 0)
(1.31497e-16 0 0)
(3.24004e-16 -9.54094e-17 0)
(-7.27092e-17 -3.53449e-16 0)
(-5.93864e-16 -5.52941e-16 0)
(-2.84212e-16 -2.40692e-16 0)
(-8.18303e-17 -2.1684e-17 0)
(1.63304e-17 0 0)
(-2.6719e-17 0 0)
(1.56275e-16 2.1684e-18 0)
(4.10406e-16 2.2985e-16 0)
(2.17277e-16 4.11995e-16 0)
(-3.08501e-17 1.6263e-16 0)
(9.16644e-17 -1.27935e-16 0)
(3.01021e-16 -6.50519e-17 0)
(-5.85459e-17 -9.32411e-17 0)
(-4.09211e-16 0 0)
(-1.27474e-16 -9.97462e-17 0)
(-1.69692e-17 -3.77301e-16 0)
(-3.75352e-17 -1.36609e-16 0)
(2.1248e-16 0 0)
(5.66264e-17 1.51788e-17 0)
(-1.81203e-16 -2.23345e-16 0)
(-1.83906e-17 -4.33679e-17 0)
(7.28967e-19 -1.12757e-16 0)
(-5.5783e-18 0 0)
(-3.46817e-18 1.19262e-16 0)
(1.46317e-18 0 0)
(1.04781e-17 0 0)
(4.04256e-17 0 0)
(5.12065e-12 -1.42247e-15 0)
(1.77266e-08 -1.51137e-15 0)
(6.65413e-06 -1.05818e-15 0)
(0.000383456 -1.69841e-15 0)
(0.0051029 -2.52624e-15 0)
(0.0244039 6.87055e-15 0)
(0.0624583 -1.1549e-15 0)
(0.113224 1.24405e-14 0)
(0.170401 -1.71949e-14 0)
(0.230789 2.02169e-14 0)
(0.293024 -4.62133e-15 0)
(0.356495 -7.3349e-15 0)
(0.420916 2.28397e-14 0)
(0.486175 -1.53395e-15 0)
(0.552259 -1.14038e-15 0)
(0.619197 3.06606e-15 0)
(0.686982 3.04481e-15 0)
(0.75516 -1.46049e-16 0)
(0.822682 1.98294e-15 0)
(0.884274 1.06009e-15 0)
(0.929364 -2.03777e-15 0)
(0.941506 -1.34915e-15 0)
(0.924161 -1.37755e-15 0)
(0.925576 -2.29032e-15 0)
(0.926818 1.62623e-15 0)
(0.927054 6.60707e-17 0)
(0.927321 -2.01039e-15 0)
(0.927628 -8.85844e-16 0)
(0.928241 -4.78973e-15 0)
(0.929035 -2.70072e-15 0)
(0.929916 -1.76932e-15 0)
(0.932322 -7.23419e-16 0)
(0.92819 7.66493e-15 0)
(0.920162 -9.16825e-17 0)
(0.925155 2.36268e-15 0)
(0.929645 -2.18409e-16 0)
(0.934629 2.427e-15 0)
(0.934161 1.41896e-15 0)
(0.920271 -4.75137e-17 0)
(0.826248 2.58449e-15 0)
(0.47606 -1.39979e-15 0)
(0.064735 9.12717e-15 0)
(0.000809073 -1.99024e-15 0)
(6.764e-07 1.46367e-16 0)
(2.83254e-11 6.2233e-16 0)
(9.7219e-16 -7.80623e-17 0)
(2.13232e-16 3.90311e-17 0)
(8.91533e-17 3.03576e-17 0)
(5.74655e-17 1.07336e-16 0)
(1.5988e-16 2.73218e-16 0)
(3.58341e-17 4.04406e-16 0)
(-6.52506e-20 3.5128e-16 0)
(-4.35818e-17 1.26851e-16 0)
(-1.52833e-16 2.92734e-17 0)
(1.44992e-17 1.90819e-16 0)
(1.4336e-16 3.9248e-16 0)
(-2.52955e-17 1.71303e-16 0)
(-3.99271e-16 4.55363e-17 0)
(-6.44017e-16 8.67359e-17 0)
(-4.75198e-16 -8.56517e-17 0)
(-1.48265e-16 8.67359e-18 0)
(9.17687e-17 -2.48281e-16 0)
(3.37558e-16 -2.25513e-16 0)
(3.45023e-16 5.63783e-17 0)
(9.49711e-17 3.39354e-16 0)
(-2.47186e-16 2.39608e-16 0)
(-4.96322e-16 -9.10727e-17 0)
(-4.80169e-16 -3.08997e-16 0)
(-3.78601e-16 -2.48281e-16 0)
(-4.52111e-16 -3.50196e-16 0)
(0 0 0)
(1.08676e-16 -3.03576e-17 0)
(2.04388e-17 -3.96817e-16 0)
(-6.78506e-17 -7.61107e-16 0)
(-2.50726e-16 -4.4669e-16 0)
(-8.66925e-17 -4.33679e-17 0)
(1.14672e-16 0 0)
(6.43256e-17 0 0)
(-5.80817e-17 0 0)
(1.36507e-16 0 0)
(4.10372e-16 2.60208e-17 0)
(5.21635e-18 1.77809e-16 0)
(-3.40536e-16 0 0)
(-5.12781e-17 -5.20415e-17 0)
(1.90368e-16 0 0)
(2.71852e-17 -9.32411e-17 0)
(-2.31791e-16 0 0)
(-1.47684e-16 0 0)
(-2.56811e-17 -1.14925e-16 0)
(-2.93834e-19 0 0)
(2.01574e-16 0 0)
(1.83182e-18 -9.32411e-17 0)
(-1.68696e-16 -4.55363e-17 0)
(-1.82891e-17 0 0)
(1.2145e-18 0 0)
(-1.50948e-17 0 0)
(-5.72549e-18 0 0)
(-3.49103e-19 0 0)
(-1.04951e-17 0 0)
(2.4073e-16 0 0)
(5.11962e-12 -3.14417e-16 0)
(1.77266e-08 -7.63276e-16 0)
(6.65413e-06 -2.60643e-15 0)
(0.000383456 2.41421e-15 0)
(0.0051029 -7.61573e-15 0)
(0.0244039 6.37355e-15 0)
(0.0624583 3.67053e-16 0)
(0.113224 8.05559e-15 0)
(0.170401 -1.43896e-14 0)
(0.230789 1.30655e-14 0)
(0.293024 -4.03265e-15 0)
(0.356495 -7.61906e-15 0)
(0.420916 1.51867e-14 0)
(0.486175 -9.46017e-16 0)
(0.552259 -2.57825e-15 0)
(0.619197 7.17488e-16 0)
(0.686982 3.54156e-15 0)
(0.75516 -2.19074e-15 0)
(0.822682 2.92627e-15 0)
(0.884274 -4.87959e-16 0)
(0.929364 1.33292e-15 0)
(0.941506 2.3619e-15 0)
(0.924161 -1.93192e-15 0)
(0.925576 -4.56415e-17 0)
(0.926818 1.48634e-15 0)
(0.927054 -9.84358e-16 0)
(0.927321 -1.31238e-15 0)
(0.927628 -4.9606e-16 0)
(0.928241 -2.71527e-15 0)
(0.929035 -2.00172e-15 0)
(0.929916 -2.33144e-15 0)
(0.932322 -1.94665e-15 0)
(0.92819 2.85426e-15 0)
(0.920162 3.60109e-16 0)
(0.925155 5.21385e-16 0)
(0.929645 5.8071e-17 0)
(0.934629 3.65867e-16 0)
(0.934161 -9.7547e-16 0)
(0.920271 -4.97345e-16 0)
(0.826248 9.72034e-16 0)
(0.47606 1.56534e-15 0)
(0.064735 2.38578e-15 0)
(0.000809073 -8.23398e-16 0)
(6.764e-07 -6.8196e-16 0)
(2.83252e-11 1.19262e-17 0)
(9.62364e-16 -2.27682e-17 0)
(1.94217e-16 0 0)
(6.91692e-17 0 0)
(9.83029e-17 2.1684e-18 0)
(2.24199e-16 0 0)
(7.27987e-17 0 0)
(9.6801e-19 0 0)
(-1.00123e-17 0 0)
(-1.21288e-16 0 0)
(7.12941e-17 2.92734e-17 0)
(2.23085e-16 1.97324e-16 0)
(1.82258e-17 0 0)
(-3.76278e-16 0 0)
(-6.35954e-16 0 0)
(-4.43145e-16 0 0)
(-2.66502e-16 -1.6263e-17 0)
(3.96264e-17 -9.64936e-17 0)
(3.58561e-16 -9.8662e-17 0)
(4.30243e-16 0 0)
(1.60555e-16 0 0)
(-2.78112e-16 2.1684e-17 0)
(-5.46414e-16 5.85467e-17 0)
(-4.54103e-16 -1.0083e-16 0)
(-2.86729e-16 -7.04729e-17 0)
(-2.49366e-16 -1.43114e-16 0)
(2.08166e-16 1.99492e-16 0)
(1.85231e-16 0 0)
(-1.28347e-16 -1.66967e-16 0)
(-8.44081e-17 -4.25006e-16 0)
(-1.34285e-17 -1.45283e-16 0)
(6.23296e-17 0 0)
(3.21016e-16 9.75778e-17 0)
(1.11947e-16 2.86228e-16 0)
(-6.71933e-17 1.58293e-16 0)
(1.62967e-16 -2.1684e-18 0)
(4.25031e-16 0 0)
(5.54634e-17 0 0)
(-3.12675e-16 0 0)
(-2.43304e-17 -7.37255e-17 0)
(2.10004e-16 0 0)
(2.84687e-17 9.32411e-17 0)
(-2.42728e-16 7.58939e-17 0)
(-2.53973e-16 0 0)
(-6.08691e-17 0 0)
(3.65967e-17 0 0)
(2.23784e-16 0 0)
(8.43717e-19 9.32411e-17 0)
(-1.98391e-16 0 0)
(-2.25495e-17 0 0)
(-5.64596e-18 0 0)
(-5.9059e-17 0 0)
(-2.42808e-17 0 0)
(-7.0298e-18 0 0)
(-6.93719e-17 0 0)
(2.62559e-16 0 0)
(5.11936e-12 1.30104e-17 0)
(1.77266e-08 -2.47197e-16 0)
(6.65413e-06 -8.06648e-16 0)
(0.000383456 5.46613e-15 0)
(0.0051029 -1.47807e-14 0)
(0.0244039 1.3077e-14 0)
(0.0624583 -2.05138e-15 0)
(0.113224 3.89999e-15 0)
(0.170401 -9.53196e-15 0)
(0.230789 7.57488e-15 0)
(0.293024 -3.74041e-15 0)
(0.356495 -5.24217e-15 0)
(0.420916 7.01132e-15 0)
(0.486175 -4.2804e-16 0)
(0.552259 -2.29492e-15 0)
(0.619197 -3.33005e-15 0)
(0.686982 2.65667e-15 0)
(0.75516 -4.67249e-15 0)
(0.822682 3.3263e-15 0)
(0.884274 1.40654e-15 0)
(0.929364 4.83866e-15 0)
(0.941506 2.71246e-15 0)
(0.924161 -1.17958e-16 0)
(0.925576 5.74006e-16 0)
(0.926818 -1.12358e-15 0)
(0.927054 -1.96967e-15 0)
(0.927321 -1.10266e-15 0)
(0.927628 -8.25349e-16 0)
(0.928241 -1.71156e-15 0)
(0.929035 -1.35216e-15 0)
(0.929916 -2.1925e-15 0)
(0.932322 -9.39074e-16 0)
(0.92819 3.61078e-16 0)
(0.920162 8.85755e-16 0)
(0.925155 -1.22273e-15 0)
(0.929645 -6.99421e-16 0)
(0.934629 -7.78298e-16 0)
(0.934161 -9.14599e-16 0)
(0.920271 -3.641e-16 0)
(0.826248 -1.01376e-15 0)
(0.47606 -2.06938e-17 0)
(0.064735 -2.40529e-15 0)
(0.000809073 6.29466e-16 0)
(6.764e-07 -6.52687e-16 0)
(2.83251e-11 -1.87566e-16 0)
(9.70841e-16 -4.87889e-17 0)
(2.40783e-16 -1.14925e-16 0)
(1.23265e-16 -1.63714e-16 0)
(7.86331e-18 -3.57785e-17 0)
(-3.49189e-17 -1.68051e-16 0)
(-7.74558e-19 -3.03576e-16 0)
(6.41204e-17 -2.90565e-16 0)
(1.93281e-16 -2.38524e-16 0)
(8.35143e-17 -1.0083e-16 0)
(1.33764e-16 6.17993e-17 0)
(1.20038e-16 3.57785e-17 0)
(-4.30364e-18 0 0)
(-3.33294e-16 0 0)
(-5.75289e-16 3.68627e-17 0)
(-5.34148e-16 1.38777e-16 0)
(-3.38898e-16 -5.63783e-17 0)
(6.90234e-17 -1.0842e-18 0)
(4.14927e-16 0 0)
(4.82909e-16 -1.05167e-16 0)
(2.93487e-16 -2.28766e-16 0)
(-6.43273e-17 -2.05998e-17 0)
(-4.24226e-16 2.27682e-16 0)
(-6.21358e-16 1.25767e-16 0)
(-4.62474e-16 1.91903e-16 0)
(-3.61038e-16 2.01661e-16 0)
(5.31257e-16 4.79216e-16 0)
(2.76211e-16 1.84314e-16 0)
(-1.69771e-16 1.47451e-16 0)
(-2.70047e-16 -1.45283e-16 0)
(-5.83803e-17 2.1684e-18 0)
(2.33201e-16 1.51788e-17 0)
(3.97368e-16 3.68627e-16 0)
(1.44028e-16 6.24498e-16 0)
(-4.44834e-17 4.35848e-16 0)
(2.05499e-16 1.8865e-16 0)
(3.39279e-16 1.36609e-16 0)
(7.43313e-17 -1.36609e-16 0)
(-2.29288e-16 -7.80623e-17 0)
(-1.8859e-17 -2.66713e-16 0)
(2.19177e-16 -6.28835e-17 0)
(1.55489e-17 3.25259e-17 0)
(-2.6308e-16 3.14417e-16 0)
(-3.84204e-16 1.34441e-16 0)
(-1.23965e-16 0 0)
(6.40296e-17 0 0)
(2.26634e-16 0 0)
(1.85928e-18 -3.03576e-17 0)
(-2.19432e-16 0 0)
(-3.66096e-17 0 0)
(-5.64019e-17 0 0)
(-1.60438e-16 0 0)
(-7.613e-17 0 0)
(-2.5563e-17 0 0)
(-1.52179e-16 0 0)
(2.42765e-16 0 0)
(5.11972e-12 7.13402e-16 0)
(1.77266e-08 -6.52687e-16 0)
(6.65413e-06 3.47596e-15 0)
(0.000383456 7.66994e-15 0)
(0.0051029 -1.84524e-14 0)
(0.0244039 1.76883e-14 0)
(0.0624583 -5.55268e-15 0)
(0.113224 1.55044e-15 0)
(0.170401 -4.3844e-15 0)
(0.230789 4.03623e-15 0)
(0.293024 -3.82711e-15 0)
(0.356495 -1.33348e-15 0)
(0.420916 -1.85598e-15 0)
(0.486175 -9.82659e-17 0)
(0.552259 -2.13555e-15 0)
(0.619197 -6.06518e-15 0)
(0.686982 2.01312e-15 0)
(0.75516 -5.25991e-15 0)
(0.822682 2.15946e-15 0)
(0.884274 3.00827e-15 0)
(0.929364 6.06743e-15 0)
(0.941506 3.73294e-15 0)
(0.924161 1.63055e-15 0)
(0.925576 1.24405e-15 0)
(0.926818 -3.1148e-15 0)
(0.927054 -4.30673e-15 0)
(0.927321 -6.41396e-16 0)
(0.927628 -1.79196e-15 0)
(0.928241 -1.44481e-15 0)
(0.929035 -4.89694e-16 0)
(0.929916 -2.04324e-15 0)
(0.932322 5.50187e-16 0)
(0.92819 -1.58323e-15 0)
(0.920162 3.68768e-16 0)
(0.925155 -1.27364e-15 0)
(0.929645 -1.01701e-15 0)
(0.934629 -2.10975e-15 0)
(0.934161 -9.71378e-16 0)
(0.920271 -7.93272e-16 0)
(0.826248 -2.50937e-15 0)
(0.47606 -1.41531e-15 0)
(0.064735 -7.07312e-15 0)
(0.000809073 9.50158e-16 0)
(6.764e-07 5.46436e-16 0)
(2.83253e-11 -6.04983e-16 0)
(9.09753e-16 -1.09504e-16 0)
(1.93562e-16 -2.77555e-16 0)
(1.1273e-16 -3.50196e-16 0)
(9.35338e-18 -2.48281e-16 0)
(-1.13128e-16 -3.80554e-16 0)
(3.36781e-18 -5.36678e-16 0)
(1.0642e-16 -5.21499e-16 0)
(2.64161e-16 -4.64037e-16 0)
(1.44326e-16 -2.88397e-16 0)
(1.87795e-16 -8.02307e-17 0)
(1.53836e-16 0 0)
(1.69581e-17 0 0)
(-1.06374e-16 -6.72203e-17 0)
(-3.81109e-16 1.10588e-16 0)
(-5.68687e-16 3.24175e-16 0)
(-3.36493e-16 1.47451e-16 0)
(3.43914e-17 2.1684e-17 0)
(3.57947e-16 9.10727e-17 0)
(5.10925e-16 -2.73218e-16 0)
(3.49782e-16 -4.45605e-16 0)
(1.03401e-16 -1.97324e-16 0)
(-3.53038e-16 5.63783e-17 0)
(-5.8411e-16 3.13333e-16 0)
(-4.75561e-16 4.18501e-16 0)
(-5.76793e-16 4.19585e-16 0)
(7.48097e-16 2.49366e-16 0)
(3.54737e-16 1.04083e-16 0)
(-1.68968e-16 1.25767e-16 0)
(-3.23295e-16 2.10334e-16 0)
(1.51347e-17 1.01915e-16 0)
(3.84816e-16 2.62376e-16 0)
(5.8004e-16 1.90819e-16 0)
(2.19093e-16 3.31765e-16 0)
(-2.26031e-16 2.58039e-16 0)
(2.80439e-16 3.07912e-16 0)
(-2.02731e-17 8.67359e-18 0)
(-1.48024e-16 -2.53702e-16 0)
(-2.02068e-16 -8.67359e-18 0)
(-4.90738e-17 9.54094e-17 0)
(2.45012e-16 8.67359e-18 0)
(2.22732e-16 -1.73472e-16 0)
(-1.01768e-16 1.12757e-16 0)
(-4.71774e-16 2.34187e-16 0)
(-1.86831e-16 8.67359e-17 0)
(6.6996e-17 1.92987e-16 0)
(-1.69351e-16 3.68627e-17 0)
(-1.13787e-16 -2.19008e-16 0)
(1.36668e-16 3.90311e-17 0)
(1.00385e-16 2.60208e-16 0)
(-1.78266e-16 1.17093e-16 0)
(-3.25907e-16 2.38524e-17 0)
(-1.73625e-16 0 0)
(-6.09331e-17 0 0)
(-2.28614e-16 2.60208e-17 0)
(1.76315e-16 -4.33679e-18 0)
(5.12119e-12 9.93126e-16 0)
(1.77266e-08 -5.18247e-16 0)
(6.65413e-06 3.86194e-15 0)
(0.000383456 9.03864e-15 0)
(0.0051029 -1.50638e-14 0)
(0.0244039 1.80525e-14 0)
(0.0624583 -8.92476e-15 0)
(0.113224 9.65142e-16 0)
(0.170401 -1.66313e-15 0)
(0.230789 2.29999e-15 0)
(0.293024 -4.35006e-15 0)
(0.356495 3.43213e-15 0)
(0.420916 -8.92065e-15 0)
(0.486175 -9.5268e-16 0)
(0.552259 -2.5747e-15 0)
(0.619197 -5.67108e-15 0)
(0.686982 -4.96743e-16 0)
(0.75516 -4.60162e-15 0)
(0.822682 8.04638e-16 0)
(0.884274 -1.28089e-16 0)
(0.929364 4.78133e-15 0)
(0.941506 5.34863e-15 0)
(0.924161 3.29651e-15 0)
(0.925576 3.36923e-16 0)
(0.926818 -8.22812e-16 0)
(0.927054 -3.36865e-15 0)
(0.927321 -4.24273e-16 0)
(0.927628 -2.29227e-15 0)
(0.928241 -9.24838e-16 0)
(0.929035 -6.95749e-16 0)
(0.929916 -1.0631e-15 0)
(0.932322 6.29732e-16 0)
(0.92819 -1.94769e-15 0)
(0.920162 -7.66568e-16 0)
(0.925155 -1.72098e-15 0)
(0.929645 -1.2308e-15 0)
(0.934629 -3.1879e-15 0)
(0.934161 -2.90493e-15 0)
(0.920271 -1.47447e-15 0)
(0.826248 -2.56167e-15 0)
(0.47606 -2.467e-15 0)
(0.064735 -3.95918e-15 0)
(0.000809073 -9.75077e-17 0)
(6.764e-07 1.19695e-15 0)
(2.83263e-11 -8.03391e-16 0)
(7.62491e-16 2.1684e-17 0)
(1.19073e-16 -8.99885e-17 0)
(1.69208e-16 -1.61546e-16 0)
(-3.25666e-18 -1.07336e-16 0)
(-1.6408e-16 -2.21176e-16 0)
(1.38575e-17 -2.68881e-16 0)
(1.5048e-16 -2.8406e-16 0)
(3.28589e-16 -2.52618e-16 0)
(2.26944e-16 -2.65629e-16 0)
(2.66049e-16 -1.09504e-16 0)
(1.85258e-16 0 0)
(3.83009e-17 -9.43252e-17 0)
(5.90514e-17 -2.39608e-16 0)
(-9.04035e-17 -8.67359e-18 0)
(-3.25609e-16 2.32018e-16 0)
(-2.72431e-16 3.45859e-16 0)
(-7.18543e-17 1.48535e-16 0)
(1.8621e-16 2.7105e-17 0)
(2.49903e-16 -1.51788e-16 0)
(4.25671e-16 -2.67797e-16 0)
(2.13768e-16 -9.54094e-17 0)
(-1.75371e-16 -1.05167e-16 0)
(-4.3176e-16 1.60461e-16 0)
(-5.41918e-16 2.26597e-16 0)
(-7.15571e-16 2.88397e-16 0)
(5.35594e-16 -2.1684e-18 0)
(2.44738e-16 2.55871e-16 0)
(-1.05252e-16 3.07912e-16 0)
(-5.17996e-17 4.92226e-16 0)
(1.90008e-16 3.59954e-16 0)
(4.2232e-16 5.85467e-16 0)
(3.96306e-16 3.46943e-16 0)
(9.02934e-17 1.06251e-16 0)
(-4.06014e-17 1.97324e-16 0)
(-8.47542e-17 -6.07151e-17 0)
(-3.24242e-16 -3.16586e-16 0)
(-7.57053e-17 -6.72203e-17 0)
(-2.08555e-16 2.2985e-16 0)
(4.46318e-18 4.597e-16 0)
(2.2921e-16 2.40692e-16 0)
(9.06334e-17 1.0842e-17 0)
(-1.87176e-17 1.34441e-16 0)
(-2.86187e-16 4.01153e-16 0)
(-7.06684e-17 2.99239e-16 0)
(6.30714e-17 4.81384e-16 0)
(-1.71878e-16 2.49366e-16 0)
(-1.1681e-16 6.28835e-17 0)
(1.47017e-16 2.64544e-16 0)
(1.6363e-16 5.78962e-16 0)
(-1.92552e-16 3.75133e-16 0)
(-5.63001e-16 2.45029e-16 0)
(-3.42436e-16 2.81892e-17 0)
(-9.95966e-17 6.50519e-17 0)
(-2.83307e-16 1.49619e-16 0)
(-3.57908e-18 -3.16586e-16 0)
(5.12191e-12 -2.90565e-16 0)
(1.77266e-08 -6.15825e-16 0)
(6.65413e-06 -1.19913e-15 0)
(0.000383456 1.10646e-14 0)
(0.0051029 -1.09586e-14 0)
(0.0244039 9.42971e-15 0)
(0.0624583 -8.30043e-15 0)
(0.113224 -7.58496e-16 0)
(0.170401 1.61042e-15 0)
(0.230789 6.52414e-16 0)
(0.293024 -4.46472e-15 0)
(0.356495 7.75078e-15 0)
(0.420916 -1.40681e-14 0)
(0.486175 -3.20946e-15 0)
(0.552259 -1.6663e-15 0)
(0.619197 -4.6104e-15 0)
(0.686982 -2.98951e-15 0)
(0.75516 -4.43194e-15 0)
(0.822682 1.5405e-15 0)
(0.884274 7.56337e-17 0)
(0.929364 2.77828e-15 0)
(0.941506 2.88018e-15 0)
(0.924161 2.92334e-15 0)
(0.925576 -1.50934e-15 0)
(0.926818 1.97119e-16 0)
(0.927054 -1.89881e-15 0)
(0.927321 -2.08566e-15 0)
(0.927628 -2.05781e-15 0)
(0.928241 -8.32761e-17 0)
(0.929035 -1.51888e-15 0)
(0.929916 3.49339e-17 0)
(0.932322 -5.63003e-16 0)
(0.92819 7.77819e-16 0)
(0.920162 -1.15775e-15 0)
(0.925155 -2.95194e-15 0)
(0.929645 -2.72317e-15 0)
(0.934629 -1.37955e-15 0)
(0.934161 -3.58883e-15 0)
(0.920271 -2.67058e-15 0)
(0.826248 -1.23966e-15 0)
(0.47606 -3.02278e-15 0)
(0.064735 1.39778e-15 0)
(0.000809073 -1.03033e-15 0)
(6.764e-07 -4.69458e-16 0)
(2.8327e-11 4.27174e-16 0)
(8.2593e-16 1.85398e-16 0)
(2.21744e-16 2.01661e-16 0)
(1.00383e-16 4.01153e-17 0)
(-8.57116e-17 -6.28835e-17 0)
(-4.99584e-17 9.97462e-17 0)
(1.10619e-16 1.66967e-16 0)
(8.03987e-18 6.39677e-17 0)
(1.00962e-16 6.28835e-17 0)
(2.50807e-16 -4.55363e-17 0)
(2.85963e-16 -7.58939e-18 0)
(9.56258e-17 -4.33679e-18 0)
(-6.50679e-17 -1.64798e-16 0)
(8.08523e-17 -5.63783e-17 0)
(1.38967e-16 0 0)
(-3.91484e-17 -1.95156e-17 0)
(-1.86584e-16 1.50704e-16 0)
(-1.27014e-16 4.87889e-17 0)
(4.89241e-17 1.66967e-16 0)
(1.95577e-16 2.13587e-16 0)
(3.20627e-16 8.23991e-17 0)
(1.054e-16 -1.35525e-16 0)
(-2.46573e-16 -2.30934e-16 0)
(-4.59696e-16 -1.73472e-17 0)
(-4.92362e-16 2.49366e-17 0)
(-6.26667e-16 1.22514e-16 0)
(7.4376e-16 -2.25513e-16 0)
(3.54723e-16 -9.97462e-17 0)
(-1.02505e-16 -3.68627e-17 0)
(-1.34286e-16 2.19008e-16 0)
(2.18177e-16 1.79977e-16 0)
(5.61156e-16 2.99239e-16 0)
(2.1269e-16 -3.90311e-17 0)
(-6.59115e-17 -3.9248e-16 0)
(-2.62749e-16 -2.32018e-16 0)
(-4.51089e-16 -4.25006e-16 0)
(-1.09864e-16 -9.54094e-17 0)
(1.75069e-16 2.05998e-16 0)
(-2.37685e-17 5.20415e-17 0)
(-2.11347e-16 2.47197e-16 0)
(-3.54743e-17 -4.33679e-18 0)
(2.74585e-16 -6.07151e-17 0)
(1.89055e-16 -1.60461e-16 0)
(4.54285e-18 1.95156e-17 0)
(7.26652e-18 4.33679e-18 0)
(4.51632e-17 5.85467e-17 0)
(-1.40695e-16 -1.14925e-16 0)
(-9.45953e-17 4.33679e-18 0)
(1.47132e-16 8.45675e-17 0)
(4.17785e-17 2.05998e-16 0)
(-3.35154e-16 8.67359e-18 0)
(-7.06058e-16 4.33679e-18 0)
(-5.50055e-16 0 0)