/*--------------------------------*- C++ -*----------------------------------*\
| =========                 |                                                 |
| \\      /  F ield         | OpenFOAM: The Open Source CFD Toolbox           |
|  \\    /   O peration     | Version:  4.1                                   |
|   \\  /    A nd           | Web:      www.OpenFOAM.org                      |
|    \\/     M anipulation  |                                                 |
\*---------------------------------------------------------------------------*/
FoamFile
{
    version     2.0;
    format      ascii;
    class       volVectorField;
    location    "0.29";
    object      U;
}
// * * * * * * * * * * * * * * * * * * * * * * * * * * * * * * * * * * * * * //

dimensions      [0 1 -1 0 0 0 0];

internalField   nonuniform List<vector> 
10000
(
(0 0 0)
(1.343e-16 0 0)
(2.9126e-16 0 0)
(9.42868e-17 1.51788e-16 0)
(-1.20875e-16 0 0)
(-2.62868e-16 0 0)
(-2.39177e-16 0 0)
(-3.2158e-17 0 0)
(-3.60804e-23 0 0)
(2.11374e-16 1.43114e-16 0)
(4.62613e-16 0 0)
(1.35107e-16 -1.53956e-16 0)
(-2.42695e-16 0 0)
(2.81123e-17 0 0)
(1.5838e-16 0 0)
(-4.46733e-17 1.32272e-16 0)
(-2.49246e-16 0 0)
(-1.25727e-16 0 0)
(-2.66905e-17 0 0)
(-1.73582e-16 0 0)
(-1.22728e-19 0 0)
(1.22404e-16 1.17093e-16 0)
(3.09605e-17 0 0)
(9.64411e-17 0 0)
(-1.21817e-16 3.68627e-17 0)
(-2.51531e-16 -7.80623e-17 0)
(1.64468e-13 -1.01915e-15 0)
(1.22319e-09 1.16443e-15 0)
(9.05649e-07 -2.49366e-16 0)
(9.23685e-05 3.58247e-15 0)
(0.00190894 6.38322e-15 0)
(0.0123203 1.02546e-15 0)
(0.0377008 8.9224e-15 0)
(0.0753937 3.54249e-15 0)
(0.119767 7.57331e-15 0)
(0.16741 8.41213e-15 0)
(0.216817 -1.43278e-14 0)
(0.267323 8.34009e-15 0)
(0.318599 -7.21316e-15 0)
(0.370463 1.7531e-14 0)
(0.422817 3.89342e-14 0)
(0.47562 5.03207e-14 0)
(0.528862 2.22786e-14 0)
(0.582558 1.54754e-14 0)
(0.63672 9.1924e-15 0)
(0.69132 2.48651e-14 0)
(0.746207 2.61992e-14 0)
(0.800913 2.45281e-14 0)
(0.853926 -2.91851e-14 0)
(0.901236 -2.14883e-14 0)
(0.93234 9.68124e-16 0)
(0.938138 1.06802e-14 0)
(0.924723 1.26916e-14 0)
(0.926174 1.41815e-14 0)
(0.927345 8.79713e-15 0)
(0.927605 7.50277e-15 0)
(0.92782 5.83977e-15 0)
(0.927955 4.073e-15 0)
(0.928197 3.76859e-15 0)
(0.928306 4.45509e-15 0)
(0.928061 6.04041e-15 0)
(0.927946 9.775e-15 0)
(0.928375 3.51676e-15 0)
(0.928924 8.95723e-15 0)
(0.92911 1.77094e-16 0)
(0.931016 -4.28565e-15 0)
(0.93058 -3.98177e-15 0)
(0.926021 -3.54197e-15 0)
(0.924768 -1.38031e-15 0)
(0.924787 -5.30374e-16 0)
(0.925853 -3.78412e-15 0)
(0.928344 -5.26351e-15 0)
(0.928001 -6.22815e-15 0)
(0.920118 -5.25709e-15 0)
(0.86453 -5.16049e-15 0)
(0.614253 -3.75961e-15 0)
(0.153081 -4.53205e-16 0)
(0.00433636 -5.77855e-16 0)
(9.18226e-06 9.64928e-16 0)
(1.0527e-09 7.37255e-17 0)
(2.81142e-14 0 0)
(-4.90547e-17 0 0)
(-1.41221e-16 0 0)
(6.51908e-17 0 0)
(2.6968e-16 9.97462e-17 0)
(8.69169e-17 0 0)
(-1.73446e-16 0 0)
(-7.88003e-17 0 0)
(-7.53095e-17 0 0)
(-1.83776e-16 0 0)
(-2.5662e-16 -6.50519e-18 0)
(-4.09341e-16 0 0)
(-2.09e-16 8.78201e-17 0)
(5.59584e-17 0 0)
(2.66666e-16 0 0)
(3.70188e-17 0 0)
(-2.08125e-16 1.45283e-16 0)
(-2.69026e-16 9.10727e-17 0)
(-1.72572e-16 2.38524e-17 0)
(-3.79469e-17 1.01915e-16 0)
(0 0 0)
(1.79358e-16 0 0)
(3.00011e-16 1.38777e-16 0)
(9.7541e-17 3.36101e-16 0)
(-1.25009e-16 1.25767e-16 0)
(-3.14089e-16 2.47197e-16 0)
(-2.9201e-16 4.98731e-17 0)
(-3.3184e-17 0 0)
(-4.54754e-21 0 0)
(2.28966e-16 0 0)
(5.26968e-16 0 0)
(1.63508e-16 0 0)
(-2.01229e-16 0 0)
(5.56726e-17 0 0)
(1.58474e-16 1.30104e-16 0)
(-4.84824e-17 3.16586e-16 0)
(-2.5731e-16 1.27935e-16 0)
(-1.52515e-16 0 0)
(-5.0341e-17 0 0)
(-2.17385e-16 0 0)
(-5.35294e-19 0 0)
(1.63887e-16 2.1684e-18 0)
(5.26374e-17 0 0)
(7.09812e-17 1.71303e-16 0)
(-1.97808e-16 3.68627e-16 0)
(-4.01037e-16 1.6263e-16 0)
(1.63265e-13 1.0842e-17 0)
(1.22319e-09 9.32411e-16 0)
(9.05649e-07 3.72964e-16 0)
(9.23685e-05 1.62426e-15 0)
(0.00190894 1.32052e-14 0)
(0.0123203 -1.12735e-14 0)
(0.0377008 1.31955e-14 0)
(0.0753937 -1.72269e-16 0)
(0.119767 5.97817e-15 0)
(0.16741 1.13163e-15 0)
(0.216817 3.0258e-15 0)
(0.267323 1.36902e-14 0)
(0.318599 -9.11264e-15 0)
(0.370463 2.53083e-14 0)
(0.422817 1.89203e-14 0)
(0.47562 7.73923e-15 0)
(0.528862 2.54538e-14 0)
(0.582558 2.50799e-14 0)
(0.63672 1.54609e-14 0)
(0.69132 1.05715e-14 0)
(0.746207 1.80075e-14 0)
(0.800913 1.73334e-14 0)
(0.853926 -2.98828e-15 0)
(0.901236 -2.94182e-15 0)
(0.93234 5.02574e-15 0)
(0.938138 1.00335e-14 0)
(0.924723 9.86004e-15 0)
(0.926174 1.42628e-14 0)
(0.927345 5.64571e-15 0)
(0.927605 7.1195e-15 0)
(0.92782 4.72831e-15 0)
(0.927955 1.92907e-15 0)
(0.928197 3.39758e-15 0)
(0.928306 3.62948e-15 0)
(0.928061 6.63287e-15 0)
(0.927946 9.33621e-15 0)
(0.928375 5.58665e-15 0)
(0.928924 7.27468e-15 0)
(0.92911 5.92053e-15 0)
(0.931016 2.97769e-15 0)
(0.93058 -1.34178e-15 0)
(0.926021 -3.37636e-15 0)
(0.924768 1.21582e-15 0)
(0.924787 2.2854e-15 0)
(0.925853 -8.51092e-16 0)
(0.928344 -1.45131e-15 0)
(0.928001 -2.38598e-15 0)
(0.920118 -3.37205e-15 0)
(0.86453 -4.21616e-15 0)
(0.614253 -1.40053e-15 0)
(0.153081 3.37513e-16 0)
(0.00433636 -3.38072e-16 0)
(9.18226e-06 2.90129e-15 0)
(1.0527e-09 4.34764e-16 0)
(2.80744e-14 8.99885e-17 0)
(-2.91633e-17 2.49366e-17 0)
(-1.26155e-16 1.19262e-16 0)
(7.06936e-17 1.98408e-16 0)
(2.71797e-16 2.02745e-16 0)
(8.86742e-17 2.1684e-17 0)
(-1.74102e-16 0 0)
(-9.0097e-17 0 0)
(-1.11617e-16 0 0)
(-2.31605e-16 1.84314e-17 0)
(-1.63818e-16 1.6263e-17 0)
(-2.7831e-16 1.69135e-16 0)
(-1.60104e-16 2.90565e-16 0)
(2.73635e-17 1.01915e-16 0)
(2.37942e-16 0 0)
(1.35979e-17 2.92734e-17 0)
(-2.27355e-16 2.66713e-16 0)
(-3.37828e-16 2.92734e-16 0)
(-2.64954e-16 2.12503e-16 0)
(-2.4286e-16 3.06828e-16 0)
(0 0 0)
(2.47542e-16 0 0)
(5.27457e-16 0 0)
(1.1738e-16 1.01915e-16 0)
(-3.61588e-16 3.44775e-16 0)
(-3.24182e-16 5.6812e-16 0)
(-3.20011e-16 2.45029e-16 0)
(-2.7907e-17 0 0)
(-2.13729e-19 0 0)
(2.55908e-16 0 0)
(5.78716e-16 0 0)
(2.18579e-16 2.1684e-18 0)
(-1.44559e-16 5.20415e-17 0)
(8.15896e-17 2.75386e-16 0)
(3.19388e-16 1.38777e-16 0)
(-4.94813e-17 7.58939e-17 0)
(-4.18527e-16 0 0)
(-1.72509e-16 0 0)
(-8.80593e-17 1.01915e-16 0)
(-2.37234e-16 0 0)
(-4.25259e-19 0 0)
(2.2687e-16 0 0)
(8.86206e-17 1.17093e-16 0)
(1.40596e-16 4.4669e-16 0)
(-1.2737e-16 6.67866e-16 0)
(-3.01021e-16 4.4669e-16 0)
(1.64319e-13 3.83806e-16 0)
(1.22319e-09 -2.47197e-16 0)
(9.05649e-07 3.94648e-15 0)
(9.23685e-05 -6.16306e-15 0)
(0.00190894 2.16039e-14 0)
(0.0123203 -1.46633e-14 0)
(0.0377008 1.11424e-14 0)
(0.0753937 7.90817e-16 0)
(0.119767 5.60701e-15 0)
(0.16741 2.19692e-15 0)
(0.216817 6.43718e-15 0)
(0.267323 1.63003e-14 0)
(0.318599 -1.11051e-14 0)
(0.370463 2.84566e-14 0)
(0.422817 1.33169e-14 0)
(0.47562 -7.37313e-15 0)
(0.528862 2.29316e-14 0)
(0.582558 2.30437e-14 0)
(0.63672 1.59621e-14 0)
(0.69132 3.7069e-15 0)
(0.746207 1.64026e-14 0)
(0.800913 1.2222e-14 0)
(0.853926 5.36282e-15 0)
(0.901236 5.02648e-15 0)
(0.93234 2.77616e-15 0)
(0.938138 9.50698e-15 0)
(0.924723 9.99698e-15 0)
(0.926174 1.49878e-14 0)
(0.927345 5.92761e-15 0)
(0.927605 3.46878e-15 0)
(0.92782 2.45582e-15 0)
(0.927955 7.88498e-16 0)
(0.928197 5.09813e-16 0)
(0.928306 2.5405e-15 0)
(0.928061 6.86952e-15 0)
(0.927946 7.27709e-15 0)
(0.928375 5.86704e-15 0)
(0.928924 8.00041e-15 0)
(0.92911 8.21736e-15 0)
(0.931016 5.19539e-15 0)
(0.93058 3.72243e-15 0)
(0.926021 -1.51718e-15 0)
(0.924768 1.4891e-15 0)
(0.924787 4.19455e-15 0)
(0.925853 7.88315e-16 0)
(0.928344 -2.26752e-16 0)
(0.928001 -1.21734e-15 0)
(0.920118 -2.11725e-15 0)
(0.86453 -6.80286e-16 0)
(0.614253 2.36237e-15 0)
(0.153081 1.29173e-15 0)
(0.00433636 1.30692e-15 0)
(9.18226e-06 1.03215e-15 0)
(1.0527e-09 3.10081e-16 0)
(2.79334e-14 3.49112e-16 0)
(1.27927e-16 2.75386e-16 0)
(6.11513e-17 4.30427e-16 0)
(1.95482e-16 3.83806e-16 0)
(1.59874e-16 1.39862e-16 0)
(-1.4109e-17 -6.39677e-17 0)
(-1.48125e-16 2.7105e-17 0)
(-8.93795e-17 1.45283e-16 0)
(-1.72313e-16 4.33679e-17 0)
(-2.75203e-16 1.45283e-16 0)
(-1.36365e-16 1.48535e-16 0)
(-9.21871e-17 3.54533e-16 0)
(-1.46535e-16 4.94394e-16 0)
(-3.31876e-17 3.85975e-16 0)
(1.42634e-16 2.12503e-16 0)
(3.36057e-17 9.43252e-17 0)
(-1.81871e-16 2.91649e-16 0)
(-3.88428e-16 4.97647e-16 0)
(-3.57131e-16 4.11995e-16 0)
(-4.53195e-16 5.1391e-16 0)
(-2.1684e-18 -2.1684e-18 0)
(2.78628e-16 -2.1684e-18 0)
(6.0676e-16 -2.1684e-18 0)
(1.97015e-16 3.90311e-17 0)
(-2.99082e-16 2.86228e-16 0)
(-6.84994e-16 1.97324e-16 0)
(-3.63513e-16 -2.1684e-18 0)
(-2.01579e-17 -2.1684e-18 0)
(-3.19302e-18 0 0)
(1.33748e-16 0 0)
(4.00911e-16 -4.33679e-18 0)
(2.19217e-16 -1.23599e-16 0)
(1.686e-16 2.36355e-16 0)
(2.07738e-16 5.91972e-16 0)
(2.64917e-16 3.20923e-16 0)
(-5.39273e-17 0 0)
(-3.59967e-16 -2.1684e-18 0)
(-1.07631e-16 1.17093e-16 0)
(-9.46661e-17 3.53449e-16 0)
(-2.23583e-16 1.73472e-16 0)
(7.56477e-18 0 0)
(2.39763e-16 1.90819e-16 0)
(9.4979e-17 3.81638e-16 0)
(2.33918e-16 1.95156e-16 0)
(-1.17811e-16 2.49366e-16 0)
(-4.63853e-16 1.6263e-16 0)
(1.63924e-13 -4.18501e-16 0)
(1.22319e-09 1.57426e-15 0)
(9.05649e-07 1.03194e-14 0)
(9.23685e-05 -1.48438e-14 0)
(0.00190894 2.29136e-14 0)
(0.0123203 -5.20839e-15 0)
(0.0377008 3.5365e-15 0)
(0.0753937 3.4789e-15 0)
(0.119767 2.56448e-15 0)
(0.16741 3.83177e-15 0)
(0.216817 5.76667e-15 0)
(0.267323 2.10914e-14 0)
(0.318599 -1.33264e-14 0)
(0.370463 2.5614e-14 0)
(0.422817 1.12019e-14 0)
(0.47562 -1.3117e-14 0)
(0.528862 2.06676e-14 0)
(0.582558 2.25838e-14 0)
(0.63672 1.48303e-14 0)
(0.69132 2.92655e-15 0)
(0.746207 1.29394e-14 0)
(0.800913 1.05877e-14 0)
(0.853926 5.53547e-15 0)
(0.901236 3.46949e-15 0)
(0.93234 1.78086e-15 0)
(0.938138 1.01389e-14 0)
(0.924723 1.26818e-14 0)
(0.926174 1.15618e-14 0)
(0.927345 6.7238e-15 0)
(0.927605 2.83815e-15 0)
(0.92782 2.32777e-15 0)
(0.927955 1.94689e-15 0)
(0.928197 -1.04841e-15 0)
(0.928306 2.09199e-15 0)
(0.928061 5.52948e-15 0)
(0.927946 5.92738e-15 0)
(0.928375 6.82498e-15 0)
(0.928924 8.44598e-15 0)
(0.92911 6.44462e-15 0)
(0.931016 2.60183e-15 0)
(0.93058 6.20084e-15 0)
(0.926021 1.03271e-15 0)
(0.924768 2.13156e-15 0)
(0.924787 3.41161e-15 0)
(0.925853 6.53499e-16 0)
(0.928344 2.72051e-15 0)
(0.928001 1.56844e-15 0)
(0.920118 -3.40861e-16 0)
(0.86453 2.41192e-15 0)
(0.614253 6.95979e-16 0)
(0.153081 4.5091e-15 0)
(0.00433636 2.68298e-15 0)
(9.18226e-06 7.17733e-16 0)
(1.0527e-09 5.10657e-16 0)
(2.78575e-14 6.94971e-16 0)
(3.67451e-16 5.25836e-16 0)
(2.50898e-16 6.44014e-16 0)
(3.84079e-17 4.96563e-16 0)
(-1.46022e-16 2.78639e-16 0)
(-3.07788e-17 1.53956e-16 0)
(2.18901e-17 2.00577e-16 0)
(-1.50164e-16 2.0925e-16 0)
(-2.75322e-16 5.42099e-17 0)
(-1.71761e-16 1.56125e-16 0)
(-6.81034e-17 5.42099e-17 0)
(3.19097e-17 1.78893e-16 0)
(-1.59524e-16 3.72964e-16 0)
(-2.03709e-16 5.85467e-16 0)
(-7.23458e-17 4.85721e-16 0)
(-1.4786e-16 3.02491e-16 0)
(-7.25483e-17 1.8323e-16 0)
(-2.52655e-16 2.90565e-16 0)
(-4.93235e-16 2.10334e-16 0)
(-6.90634e-16 2.79723e-16 0)
(-2.1684e-18 2.1684e-18 0)
(2.58195e-16 2.1684e-18 0)
(5.84769e-16 2.1684e-18 0)
(1.67475e-16 1.66967e-16 0)
(-5.82448e-16 -1.58293e-16 0)
(-6.41063e-16 -5.42099e-16 0)
(-3.04966e-16 -2.40692e-16 0)
(-4.2573e-18 2.1684e-18 0)
(-1.77771e-17 0 0)
(1.52419e-16 -2.1684e-18 0)
(4.10871e-16 5.42099e-17 0)
(2.31446e-16 2.08166e-16 0)
(4.07999e-16 5.63783e-17 0)
(2.24371e-16 2.36355e-16 0)
(2.80744e-16 5.63783e-17 0)
(-5.26748e-17 9.32411e-17 0)
(-3.89934e-16 2.1684e-18 0)
(-1.27964e-16 2.1684e-18 0)
(-9.11058e-17 -1.51788e-17 0)
(-2.73883e-16 0 0)
(5.90355e-17 0 0)
(3.30427e-16 2.62376e-16 0)
(7.54132e-17 4.55363e-17 0)
(-2.8484e-17 -3.68627e-17 0)
(-7.2879e-17 -2.88397e-16 0)
(-2.05191e-16 -1.06251e-16 0)
(1.63537e-13 -9.10727e-17 0)
(1.2232e-09 1.13407e-15 0)
(9.05649e-07 1.33183e-14 0)
(9.23685e-05 -2.14905e-14 0)
(0.00190894 1.04925e-14 0)
(0.0123203 3.75565e-15 0)
(0.0377008 -3.63613e-15 0)
(0.0753937 5.71724e-15 0)
(0.119767 -3.87374e-15 0)
(0.16741 7.52585e-15 0)
(0.216817 9.81589e-16 0)
(0.267323 2.33408e-14 0)
(0.318599 -1.39214e-14 0)
(0.370463 2.08697e-14 0)
(0.422817 1.35149e-14 0)
(0.47562 -1.48172e-14 0)
(0.528862 1.89509e-14 0)
(0.582558 2.02016e-14 0)
(0.63672 1.34235e-14 0)
(0.69132 2.76099e-15 0)
(0.746207 9.00162e-15 0)
(0.800913 9.75489e-15 0)
(0.853926 3.18813e-15 0)
(0.901236 5.82294e-15 0)
(0.93234 4.2162e-15 0)
(0.938138 6.06778e-15 0)
(0.924723 8.33441e-15 0)
(0.926174 4.99287e-15 0)
(0.927345 6.07745e-15 0)
(0.927605 3.67136e-15 0)
(0.92782 1.98398e-15 0)
(0.927955 3.55986e-15 0)
(0.928197 -3.96209e-15 0)
(0.928306 -5.44163e-16 0)
(0.928061 3.55309e-15 0)
(0.927946 4.45456e-15 0)
(0.928375 7.19674e-15 0)
(0.928924 4.03122e-15 0)
(0.92911 6.98804e-15 0)
(0.931016 -1.52434e-15 0)
(0.93058 5.79664e-15 0)
(0.926021 5.43716e-15 0)
(0.924768 1.01731e-15 0)
(0.924787 1.49113e-15 0)
(0.925853 -8.32568e-16 0)
(0.928344 4.25596e-15 0)
(0.928001 1.44799e-15 0)
(0.920118 8.42884e-16 0)
(0.86453 3.57943e-15 0)
(0.614253 -3.03988e-15 0)
(0.153081 1.08721e-14 0)
(0.00433636 -1.23132e-16 0)
(9.18226e-06 5.99557e-16 0)
(1.0527e-09 1.77158e-15 0)
(2.75494e-14 9.07474e-16 0)
(1.9981e-16 6.44014e-16 0)
(5.98896e-17 4.41269e-16 0)
(-1.38023e-16 3.08997e-16 0)
(-1.48092e-16 4.11995e-16 0)
(-3.69342e-17 4.08743e-16 0)
(-2.6805e-17 3.72964e-16 0)
(-3.52668e-16 2.27682e-16 0)
(-4.94227e-16 1.99492e-16 0)
(-3.43918e-16 -1.6263e-17 0)
(-1.65066e-17 -1.36609e-16 0)
(2.22716e-16 -1.18178e-16 0)
(1.01544e-16 3.03576e-17 0)
(3.92906e-17 3.9248e-16 0)
(3.52619e-17 6.44014e-16 0)
(-1.84299e-16 5.17163e-16 0)
(-2.96318e-16 1.30104e-16 0)
(-4.38094e-16 -1.35525e-16 0)
(-6.35924e-16 -8.13149e-17 0)
(-8.06644e-16 -1.94071e-16 0)
(0 0 0)
(1.4091e-16 0 0)
(2.7883e-16 -1.38777e-16 0)
(-1.18555e-16 -4.03322e-16 0)
(-6.7867e-16 -5.63783e-16 0)
(-3.5409e-16 -2.45029e-16 0)
(-8.45921e-17 -2.1684e-17 0)
(3.60493e-17 0 0)
(-4.30412e-17 0 0)
(1.65548e-16 2.60208e-17 0)
(4.25758e-16 2.88397e-16 0)
(2.33509e-16 4.68374e-16 0)
(-2.44378e-17 2.10334e-16 0)
(8.60847e-17 -1.0842e-16 0)
(3.08147e-16 -6.50519e-17 0)
(-4.98598e-17 -9.54094e-17 0)
(-4.02986e-16 0 0)
(-1.66925e-16 -9.97462e-17 0)
(-2.81405e-17 -3.79469e-16 0)
(-2.31298e-17 -1.36609e-16 0)
(2.35528e-16 0 0)
(5.63403e-17 1.95156e-17 0)
(-1.86657e-16 -2.27682e-16 0)
(-2.06146e-17 -4.55363e-17 0)
(2.02488e-19 -1.14925e-16 0)
(-2.81567e-17 0 0)
(1.64183e-13 4.29343e-16 0)
(1.22319e-09 -1.17527e-15 0)
(9.05649e-07 8.75166e-15 0)
(9.23685e-05 -8.27308e-15 0)
(0.00190894 -6.78285e-15 0)
(0.0123203 1.38964e-14 0)
(0.0377008 -6.34084e-15 0)
(0.0753937 5.82938e-15 0)
(0.119767 -7.75829e-15 0)
(0.16741 9.84669e-15 0)
(0.216817 -2.14094e-15 0)
(0.267323 2.19537e-14 0)
(0.318599 -1.27886e-14 0)
(0.370463 1.62618e-14 0)
(0.422817 1.35102e-14 0)
(0.47562 -1.40124e-14 0)
(0.528862 1.44418e-14 0)
(0.582558 1.59179e-14 0)
(0.63672 1.1273e-14 0)
(0.69132 1.67679e-15 0)
(0.746207 7.27324e-15 0)
(0.800913 8.71104e-15 0)
(0.853926 3.60084e-15 0)
(0.901236 7.23502e-15 0)
(0.93234 5.09448e-15 0)
(0.938138 5.41305e-15 0)
(0.924723 4.04215e-15 0)
(0.926174 3.29685e-15 0)
(0.927345 5.09555e-15 0)
(0.927605 2.33041e-15 0)
(0.92782 -5.90999e-17 0)
(0.927955 1.81288e-15 0)
(0.928197 -7.09805e-15 0)
(0.928306 -2.45326e-15 0)
(0.928061 1.74238e-15 0)
(0.927946 1.70803e-15 0)
(0.928375 4.76024e-15 0)
(0.928924 1.26495e-15 0)
(0.92911 5.73489e-15 0)
(0.931016 -1.90263e-15 0)
(0.93058 5.15589e-15 0)
(0.926021 3.17322e-15 0)
(0.924768 -9.46672e-16 0)
(0.924787 5.88102e-16 0)
(0.925853 -5.3412e-16 0)
(0.928344 2.25521e-15 0)
(0.928001 1.32241e-16 0)
(0.920118 -7.29607e-16 0)
(0.86453 3.45736e-15 0)
(0.614253 -3.76291e-15 0)
(0.153081 7.77715e-15 0)
(0.00433636 -1.96039e-15 0)
(9.18226e-06 -2.16296e-15 0)
(1.0527e-09 1.40295e-15 0)
(2.73474e-14 5.46436e-16 0)
(1.43633e-17 4.28258e-16 0)
(-5.7791e-17 1.73472e-16 0)
(-1.75673e-16 5.42099e-17 0)
(1.46336e-17 2.36355e-16 0)
(1.30489e-16 4.4669e-16 0)
(-5.9063e-17 2.17924e-16 0)
(-4.38106e-16 5.42099e-17 0)
(-6.84587e-16 8.89043e-17 0)
(-5.12144e-16 -8.78201e-17 0)
(-1.72069e-16 4.33679e-18 0)
(8.20674e-17 -2.56955e-16 0)
(3.4281e-16 -2.02745e-16 0)
(3.42585e-16 9.32411e-17 0)
(1.10554e-16 3.9248e-16 0)
(-2.66975e-16 3.00323e-16 0)
(-5.32631e-16 -6.93887e-17 0)
(-5.89377e-16 -3.08997e-16 0)
(-4.86195e-16 -2.53702e-16 0)
(-5.82214e-16 -3.55617e-16 0)
(0 0 0)
(1.61973e-16 -9.97462e-17 0)
(-3.23524e-17 -4.51026e-16 0)
(-8.73562e-17 -8.17485e-16 0)
(-3.29548e-16 -5.65951e-16 0)
(-1.01525e-16 -1.66967e-16 0)
(1.51062e-16 0 0)
(1.04408e-16 0 0)
(-5.52924e-17 0 0)
(1.663e-16 0 0)
(4.15747e-16 6.07151e-17 0)
(1.60102e-17 2.1684e-16 0)
(-3.29408e-16 0 0)
(-4.11262e-17 -5.20415e-17 0)
(2.09891e-16 0 0)
(2.155e-17 -9.32411e-17 0)
(-2.42811e-16 0 0)
(-2.03624e-16 0 0)
(-3.76203e-17 -1.17093e-16 0)
(1.14679e-17 0 0)
(2.19984e-16 0 0)
(2.34464e-18 -9.32411e-17 0)
(-1.72866e-16 -4.55363e-17 0)
(-2.54705e-17 0 0)
(-2.29501e-18 0 0)
(3.80189e-18 0 0)
(1.64596e-13 2.55871e-16 0)
(1.22319e-09 -3.10081e-16 0)
(9.05649e-07 1.55691e-15 0)
(9.23685e-05 -2.21194e-16 0)
(0.00190894 -1.12526e-14 0)
(0.0123203 1.77462e-14 0)
(0.0377008 -2.492e-15 0)
(0.0753937 5.65365e-15 0)
(0.119767 -6.98234e-15 0)
(0.16741 1.06178e-14 0)
(0.216817 -1.81156e-15 0)
(0.267323 1.81711e-14 0)
(0.318599 -9.72053e-15 0)
(0.370463 1.18697e-14 0)
(0.422817 1.01539e-14 0)
(0.47562 -9.93914e-15 0)
(0.528862 8.12082e-15 0)
(0.582558 1.13046e-14 0)
(0.63672 9.24894e-15 0)
(0.69132 2.13813e-15 0)
(0.746207 9.36135e-15 0)
(0.800913 6.19347e-15 0)
(0.853926 3.61621e-15 0)
(0.901236 3.39888e-15 0)
(0.93234 7.22352e-15 0)
(0.938138 7.09729e-15 0)
(0.924723 3.15429e-15 0)
(0.926174 3.56403e-15 0)
(0.927345 4.49745e-15 0)
(0.927605 2.37518e-16 0)
(0.92782 -1.15658e-16 0)
(0.927955 -1.3704e-15 0)
(0.928197 -4.30911e-15 0)
(0.928306 -2.98159e-15 0)
(0.928061 -4.00362e-16 0)
(0.927946 7.45178e-16 0)
(0.928375 1.38865e-15 0)
(0.928924 6.40179e-16 0)
(0.92911 1.2918e-15 0)
(0.931016 -1.18787e-15 0)
(0.93058 3.12372e-15 0)
(0.926021 1.0394e-15 0)
(0.924768 -1.4592e-16 0)
(0.924787 7.43761e-16 0)
(0.925853 -3.23148e-16 0)
(0.928344 3.89377e-16 0)
(0.928001 -2.80372e-16 0)
(0.920118 -4.80398e-16 0)
(0.86453 1.74777e-15 0)
(0.614253 -5.29736e-16 0)
(0.153081 3.06248e-15 0)
(0.00433636 -1.35661e-15 0)
(9.18226e-06 -3.63203e-16 0)
(1.0527e-09 2.37439e-16 0)
(2.7374e-14 4.33679e-18 0)
(3.59392e-18 6.50519e-18 0)
(-1.16631e-17 0 0)
(-1.28404e-16 0 0)
(6.7933e-17 5.85467e-17 0)
(2.12447e-16 2.36355e-16 0)
(3.0822e-18 2.81892e-17 0)
(-4.0326e-16 0 0)
(-6.65169e-16 0 0)
(-4.84578e-16 0 0)
(-3.06667e-16 -1.6263e-17 0)
(4.93742e-17 -9.97462e-17 0)
(3.8086e-16 -9.8662e-17 0)
(4.419e-16 0 0)
(1.64936e-16 0 0)
(-2.98968e-16 3.36101e-17 0)
(-5.73153e-16 5.85467e-17 0)
(-5.18793e-16 -1.0083e-16 0)
(-4.18143e-16 -5.09573e-17 0)
(-3.79469e-16 -1.48535e-16 0)
(2.73218e-16 1.99492e-16 0)
(2.49448e-16 0 0)
(-9.68978e-17 -1.82145e-16 0)
(-9.89474e-17 -4.74879e-16 0)
(-2.41418e-17 -1.95156e-16 0)
(8.27931e-17 0 0)
(3.67097e-16 1.40946e-16 0)
(1.54033e-16 3.42607e-16 0)
(-4.17565e-17 2.08166e-16 0)
(2.08111e-16 1.95156e-17 0)
(4.33514e-16 0 0)
(6.49015e-17 0 0)
(-3.06293e-16 0 0)
(-1.44311e-17 -7.37255e-17 0)
(2.22702e-16 0 0)
(1.31912e-17 9.32411e-17 0)
(-2.78778e-16 8.89043e-17 0)
(-3.25565e-16 0 0)
(-8.00017e-17 0 0)
(4.85446e-17 0 0)
(2.23807e-16 0 0)
(4.00932e-18 9.32411e-17 0)
(-2.26653e-16 0 0)
(-5.30739e-17 0 0)
(-3.05812e-17 0 0)
(-2.32208e-17 0 0)
(1.64773e-13 -2.49366e-16 0)
(1.22319e-09 -1.51788e-17 0)
(9.05649e-07 -3.33716e-15 0)
(9.23685e-05 -1.56137e-15 0)
(0.00190894 -1.1902e-15 0)
(0.0123203 4.96737e-15 0)
(0.0377008 8.69962e-15 0)
(0.0753937 3.6373e-15 0)
(0.119767 -7.26101e-15 0)
(0.16741 1.33129e-14 0)
(0.216817 -3.17219e-15 0)
(0.267323 1.2064e-14 0)
(0.318599 -5.93588e-15 0)
(0.370463 9.64588e-15 0)
(0.422817 6.90753e-15 0)
(0.47562 -4.81043e-15 0)
(0.528862 4.54025e-15 0)
(0.582558 6.81521e-15 0)
(0.63672 7.08789e-15 0)
(0.69132 -6.06712e-16 0)
(0.746207 7.53186e-15 0)
(0.800913 3.5906e-15 0)
(0.853926 5.053e-15 0)
(0.901236 4.79733e-15 0)
(0.93234 1.0079e-14 0)
(0.938138 5.70393e-15 0)
(0.924723 3.23924e-15 0)
(0.926174 3.87594e-15 0)
(0.927345 2.21587e-16 0)
(0.927605 -2.29738e-15 0)
(0.92782 -5.10928e-16 0)
(0.927955 -2.19773e-15 0)
(0.928197 -3.32498e-15 0)
(0.928306 -1.5223e-15 0)
(0.928061 -1.09679e-15 0)
(0.927946 1.44084e-16 0)
(0.928375 -3.17595e-16 0)
(0.928924 4.06649e-16 0)
(0.92911 -2.57192e-15 0)
(0.931016 1.09645e-15 0)
(0.93058 4.00659e-16 0)
(0.926021 1.73833e-15 0)
(0.924768 7.60535e-16 0)
(0.924787 -1.55659e-16 0)
(0.925853 -2.50388e-15 0)
(0.928344 -1.44054e-15 0)
(0.928001 -1.60227e-15 0)
(0.920118 -7.45569e-16 0)
(0.86453 -1.6671e-16 0)
(0.614253 1.99228e-15 0)
(0.153081 -1.11771e-15 0)
(0.00433636 -1.5143e-15 0)
(9.18226e-06 1.3097e-15 0)
(1.0527e-09 -2.92734e-16 0)
(2.73284e-14 -4.00069e-16 0)
(1.17177e-16 -3.01407e-16 0)
(2.17719e-16 -2.79723e-16 0)
(1.12677e-16 -1.34441e-16 0)
(1.89037e-16 1.30104e-17 0)
(1.31844e-16 3.57785e-17 0)
(-1.23733e-17 0 0)
(-3.58521e-16 0 0)
(-6.07691e-16 7.26413e-17 0)
(-5.81271e-16 1.84314e-16 0)
(-3.71513e-16 -2.38524e-17 0)
(7.186e-17 -1.0842e-18 0)
(4.48128e-16 0 0)
(5.33986e-16 -1.4203e-16 0)
(3.37644e-16 -2.73218e-16 0)
(-4.26007e-17 -4.87889e-17 0)
(-4.76143e-16 2.27682e-16 0)
(-7.06953e-16 1.4203e-16 0)
(-5.87638e-16 2.62376e-16 0)
(-4.87889e-16 2.03829e-16 0)
(6.2233e-16 4.81384e-16 0)
(3.67196e-16 1.84314e-16 0)
(-1.23231e-16 1.49619e-16 0)
(-2.82434e-16 -1.66967e-16 0)
(-7.7062e-17 2.1684e-18 0)
(2.79949e-16 4.11995e-17 0)
(4.34241e-16 4.35848e-16 0)
(1.67974e-16 6.96055e-16 0)
(-2.05731e-17 5.09573e-16 0)
(2.36887e-16 2.49366e-16 0)
(3.50439e-16 1.36609e-16 0)
(8.39013e-17 -1.36609e-16 0)
(-2.21108e-16 -7.80623e-17 0)
(-8.02025e-18 -2.66713e-16 0)
(2.2848e-16 -6.28835e-17 0)
(-1.74062e-17 3.90311e-17 0)
(-3.11858e-16 3.33933e-16 0)
(-4.43203e-16 1.53956e-16 0)
(-1.55766e-16 0 0)
(6.46041e-17 0 0)
(2.21856e-16 0 0)
(1.14746e-17 -3.03576e-17 0)
(-2.71044e-16 0 0)
(-9.11813e-17 0 0)
(-1.49464e-16 0 0)
(-1.37103e-16 0 0)
(1.63708e-13 -3.44775e-16 0)
(1.22319e-09 1.84314e-16 0)
(9.05649e-07 -8.07295e-15 0)
(9.23685e-05 -2.88853e-15 0)
(0.00190894 1.34832e-14 0)
(0.0123203 -8.70111e-15 0)
(0.0377008 1.83788e-14 0)
(0.0753937 4.62466e-16 0)
(0.119767 -5.75115e-15 0)
(0.16741 1.56901e-14 0)
(0.216817 -3.40092e-15 0)
(0.267323 5.361e-15 0)
(0.318599 -2.85208e-15 0)
(0.370463 7.8252e-15 0)
(0.422817 2.39941e-15 0)
(0.47562 8.59182e-16 0)
(0.528862 2.27099e-15 0)
(0.582558 1.75662e-15 0)
(0.63672 3.9819e-15 0)
(0.69132 -4.1006e-15 0)
(0.746207 6.57615e-15 0)
(0.800913 2.17748e-15 0)
(0.853926 4.01591e-15 0)
(0.901236 6.5649e-15 0)
(0.93234 7.93107e-15 0)
(0.938138 4.0319e-15 0)
(0.924723 1.74847e-15 0)
(0.926174 3.78265e-15 0)
(0.927345 -2.78889e-15 0)
(0.927605 -3.75488e-15 0)
(0.92782 -3.06938e-16 0)
(0.927955 -2.3569e-15 0)
(0.928197 -2.37444e-15 0)
(0.928306 1.01788e-16 0)
(0.928061 -1.78727e-15 0)
(0.927946 -1.34111e-17 0)
(0.928375 -2.14543e-15 0)
(0.928924 3.06507e-16 0)
(0.92911 -3.67538e-15 0)
(0.931016 3.2952e-15 0)
(0.93058 -2.80765e-15 0)
(0.926021 6.64987e-16 0)
(0.924768 1.66647e-15 0)
(0.924787 -1.97615e-15 0)
(0.925853 -3.10746e-15 0)
(0.928344 -2.04692e-15 0)
(0.928001 -3.82372e-16 0)
(0.920118 5.84922e-16 0)
(0.86453 -1.57783e-15 0)
(0.614253 2.24956e-15 0)
(0.153081 -4.97569e-15 0)
(0.00433636 -1.32421e-15 0)
(9.18226e-06 1.26525e-15 0)
(1.0527e-09 -1.41922e-15 0)
(2.73349e-14 -7.16655e-16 0)
(1.71758e-16 -5.3451e-16 0)
(2.72549e-16 -5.16078e-16 0)
(1.94717e-16 -3.33933e-16 0)
(2.34949e-16 -1.4203e-16 0)
(1.77459e-16 0 0)
(3.73856e-17 0 0)
(-1.2134e-16 -6.72203e-17 0)
(-4.02444e-16 1.63714e-16 0)
(-6.16969e-16 3.8489e-16 0)
(-3.8239e-16 1.7564e-16 0)
(4.38973e-17 3.57785e-17 0)
(4.02178e-16 9.10727e-17 0)
(5.54258e-16 -3.25259e-16 0)
(3.76231e-16 -5.05236e-16 0)
(1.15015e-16 -2.4286e-16 0)
(-3.79889e-16 7.58939e-17 0)
(-6.8994e-16 3.50196e-16 0)
(-6.07321e-16 5.009e-16 0)
(-7.1015e-16 4.29343e-16 0)
(8.45675e-16 2.47197e-16 0)
(4.40794e-16 1.04083e-16 0)
(-1.19905e-16 1.34441e-16 0)
(-3.25446e-16 2.23345e-16 0)
(1.88055e-17 9.97462e-17 0)
(4.13011e-16 2.66713e-16 0)
(6.18782e-16 2.53702e-16 0)
(2.45077e-16 3.75133e-16 0)
(-2.05271e-16 3.31765e-16 0)
(2.87094e-16 2.79723e-16 0)
(-9.77956e-18 -1.73472e-17 0)
(-1.36264e-16 -2.53702e-16 0)
(-2.07585e-16 -1.30104e-17 0)
(-2.85551e-17 9.75778e-17 0)
(2.46086e-16 1.51788e-17 0)
(1.76121e-16 -1.56125e-16 0)
(-1.54234e-16 1.23599e-16 0)
(-5.24545e-16 2.34187e-16 0)
(-2.2336e-16 8.89043e-17 0)
(6.6134e-17 1.92987e-16 0)
(-1.63287e-16 4.11995e-17 0)
(-9.17157e-17 -1.99492e-16 0)
(1.22454e-16 2.81892e-17 0)
(-4.57294e-17 2.60208e-16 0)
(-3.23695e-16 1.40946e-16 0)
(-3.32358e-16 2.38524e-17 0)
(1.64085e-13 2.25513e-16 0)
(1.22319e-09 -1.84314e-16 0)
(9.05649e-07 -4.60134e-15 0)
(9.23685e-05 -5.67514e-15 0)
(0.00190894 2.07808e-14 0)
(0.0123203 -1.75687e-14 0)
(0.0377008 2.06223e-14 0)
(0.0753937 -5.98894e-16 0)
(0.119767 -5.9001e-15 0)
(0.16741 1.44508e-14 0)
(0.216817 -3.57737e-15 0)
(0.267323 -9.78454e-16 0)
(0.318599 -2.48878e-15 0)
(0.370463 6.75227e-15 0)
(0.422817 -2.60682e-15 0)
(0.47562 6.35564e-15 0)
(0.528862 8.36681e-16 0)
(0.582558 -1.5326e-15 0)
(0.63672 1.7643e-15 0)
(0.69132 -3.12946e-15 0)
(0.746207 4.25709e-15 0)
(0.800913 1.70719e-15 0)
(0.853926 3.98871e-15 0)
(0.901236 -5.90841e-16 0)
(0.93234 9.35001e-15 0)
(0.938138 6.16581e-15 0)
(0.924723 2.50923e-15 0)
(0.926174 1.38442e-15 0)
(0.927345 -2.61079e-15 0)
(0.927605 -3.48846e-15 0)
(0.92782 -1.72533e-16 0)
(0.927955 -3.17882e-15 0)
(0.928197 -1.51089e-15 0)
(0.928306 -4.22664e-16 0)
(0.928061 -5.84205e-16 0)
(0.927946 -2.76132e-16 0)
(0.928375 -3.11258e-15 0)
(0.928924 2.62315e-16 0)
(0.92911 -3.51627e-15 0)
(0.931016 2.40247e-15 0)
(0.93058 -2.34115e-15 0)
(0.926021 -3.14287e-15 0)
(0.924768 1.08537e-15 0)
(0.924787 -2.7029e-15 0)
(0.925853 -3.14606e-15 0)
(0.928344 -3.36947e-15 0)
(0.928001 -1.32856e-15 0)
(0.920118 2.57963e-16 0)
(0.86453 -2.03924e-15 0)
(0.614253 2.47386e-15 0)
(0.153081 -3.8618e-15 0)
(0.00433636 1.24428e-15 0)
(9.18226e-06 -3.10078e-16 0)
(1.0527e-09 -8.92295e-16 0)
(2.76744e-14 -4.20669e-16 0)
(1.99379e-16 -2.94902e-16 0)
(3.39501e-16 -2.94902e-16 0)
(2.63508e-16 -2.80807e-16 0)
(2.92854e-16 -1.18178e-16 0)
(2.11625e-16 0 0)
(6.03477e-17 -9.43252e-17 0)
(6.65619e-17 -2.39608e-16 0)
(-1.45439e-16 -8.67359e-18 0)
(-3.79682e-16 2.32018e-16 0)
(-2.86297e-16 3.62122e-16 0)
(-8.34599e-17 1.6263e-16 0)
(1.98746e-16 5.96309e-17 0)
(2.9789e-16 -1.51788e-16 0)
(4.87975e-16 -2.89481e-16 0)
(2.40627e-16 -1.40946e-16 0)
(-2.1894e-16 -1.05167e-16 0)
(-5.27861e-16 1.86482e-16 0)
(-6.789e-16 3.02491e-16 0)
(-8.63022e-16 2.92734e-16 0)
(6.28835e-16 -2.1684e-18 0)
(3.10857e-16 2.55871e-16 0)
(-5.41013e-17 3.12249e-16 0)
(-3.18475e-17 5.1391e-16 0)
(2.00012e-16 3.64291e-16 0)
(4.25256e-16 5.78962e-16 0)
(4.35573e-16 3.46943e-16 0)
(1.53283e-16 8.23991e-17 0)
(5.45628e-18 1.97324e-16 0)
(-7.97538e-17 -9.10727e-17 0)
(-3.26298e-16 -3.36101e-16 0)
(-7.44196e-17 -8.89043e-17 0)
(-2.11197e-16 2.21176e-16 0)
(1.20358e-17 4.68374e-16 0)
(2.33769e-16 2.53702e-16 0)
(8.90696e-17 2.60208e-17 0)
(-6.84308e-17 1.30104e-16 0)
(-3.40577e-16 4.03322e-16 0)
(-9.90193e-17 2.9707e-16 0)
(7.83413e-17 4.81384e-16 0)
(-1.60681e-16 2.49366e-16 0)
(-1.0771e-16 6.28835e-17 0)
(1.48616e-16 2.66713e-16 0)
(1.2497e-16 5.6812e-16 0)
(-2.15111e-16 3.62122e-16 0)
(-5.5997e-16 2.81892e-16 0)
(1.63569e-13 -4.7271e-16 0)
(1.22319e-09 -1.63497e-15 0)
(9.05649e-07 4.11996e-15 0)
(9.23685e-05 -8.57017e-15 0)
(0.00190894 2.0607e-14 0)
(0.0123203 -1.92603e-14 0)
(0.0377008 1.52039e-14 0)
(0.0753937 -1.09836e-15 0)
(0.119767 -4.70734e-15 0)
(0.16741 9.92055e-15 0)
(0.216817 -2.9317e-15 0)
(0.267323 -3.73753e-15 0)
(0.318599 -3.96202e-16 0)
(0.370463 5.8232e-15 0)
(0.422817 -6.70168e-15 0)
(0.47562 1.09105e-14 0)
(0.528862 -3.77632e-16 0)
(0.582558 -5.85449e-15 0)
(0.63672 1.29376e-16 0)
(0.69132 -2.39959e-15 0)
(0.746207 1.45912e-15 0)
(0.800913 -1.66005e-15 0)
(0.853926 2.84401e-15 0)
(0.901236 -2.69037e-15 0)
(0.93234 9.36376e-15 0)
(0.938138 2.92461e-15 0)
(0.924723 -1.92725e-16 0)
(0.926174 -1.74457e-15 0)
(0.927345 -2.90031e-15 0)
(0.927605 -3.873e-15 0)
(0.92782 -3.05413e-15 0)
(0.927955 -3.30965e-15 0)
(0.928197 3.03841e-16 0)
(0.928306 -1.1326e-15 0)
(0.928061 -2.00676e-16 0)
(0.927946 -9.47033e-16 0)
(0.928375 -2.01205e-15 0)
(0.928924 -4.33408e-16 0)
(0.92911 -3.50099e-15 0)
(0.931016 -1.85109e-15 0)
(0.93058 1.72825e-15 0)
(0.926021 -3.25036e-15 0)
(0.924768 -1.35865e-15 0)
(0.924787 -5.38106e-16 0)
(0.925853 -1.62809e-15 0)
(0.928344 -6.63839e-16 0)
(0.928001 -1.80115e-15 0)
(0.920118 -8.1405e-16 0)
(0.86453 -1.1788e-15 0)
(0.614253 9.03124e-16 0)
(0.153081 1.20663e-15 0)
(0.00433636 1.44194e-15 0)
(9.18226e-06 -2.48062e-15 0)
(1.0527e-09 6.83045e-16 0)
(2.7738e-14 3.69712e-16 0)
(-4.78682e-17 3.36101e-17 0)
(1.08046e-16 6.28835e-17 0)
(2.86308e-16 -3.68627e-17 0)
(3.15283e-16 -1.0842e-17 0)
(1.17219e-16 -3.46943e-17 0)
(-5.19473e-17 -2.02745e-16 0)
(7.18633e-17 -7.04729e-17 0)
(7.49879e-17 0 0)
(-9.62555e-17 -1.95156e-17 0)
(-2.37544e-16 1.63714e-16 0)
(-1.30915e-16 6.07151e-17 0)
(5.23812e-17 2.15755e-16 0)
(2.08119e-16 2.59123e-16 0)
(3.37719e-16 9.43252e-17 0)
(1.0066e-16 -1.49619e-16 0)
(-2.80321e-16 -2.55871e-16 0)
(-5.27902e-16 -4.33679e-18 0)
(-6.14062e-16 6.50519e-17 0)
(-7.78454e-16 1.22514e-16 0)
(8.30496e-16 -2.23345e-16 0)
(4.3474e-16 -9.97462e-17 0)
(-4.53935e-17 -3.25259e-17 0)
(-9.84896e-17 2.2985e-16 0)
(2.51286e-16 1.82145e-16 0)
(5.93338e-16 2.9707e-16 0)
(2.51141e-16 -3.90311e-17 0)
(9.39033e-18 -3.96817e-16 0)
(-2.28694e-16 -2.45029e-16 0)
(-4.44993e-16 -4.57532e-16 0)
(-1.0536e-16 -1.17093e-16 0)
(1.86327e-16 1.7564e-16 0)
(-3.12458e-17 3.90311e-17 0)
(-2.11136e-16 2.47197e-16 0)
(-3.88695e-17 -4.33679e-18 0)
(2.72988e-16 -7.37255e-17 0)
(1.64198e-16 -1.60461e-16 0)
(-3.08511e-17 2.38524e-17 0)
(1.06371e-17 4.33679e-18 0)
(7.0332e-17 5.63783e-17 0)
(-1.13276e-16 -1.19262e-16 0)
(-8.42497e-17 4.33679e-18 0)
(1.51514e-16 8.89043e-17 0)
(4.13363e-17 2.05998e-16 0)
(-3.36484e-16 8.67359e-18 0)
(-6.83489e-16 -2.1684e-18 0)
(1.62075e-13 -4.77047e-16 0)
(1.22319e-09 -1.17093e-16 0)