/*--------------------------------*- C++ -*----------------------------------*\
| =========                 |                                                 |
| \\      /  F ield         | OpenFOAM: The Open Source CFD Toolbox           |
|  \\    /   O peration     | Version:  4.1                                   |
|   \\  /    A nd           | Web:      www.OpenFOAM.org                      |
|    \\/     M anipulation  |                                                 |
\*---------------------------------------------------------------------------*/
FoamFile
{
    version     2.0;
    format      ascii;
    class       volVectorField;
    location    "0.03";
    object      U;
}
// * * * * * * * * * * * * * * * * * * * * * * * * * * * * * * * * * * * * * //

dimensions      [0 1 -1 0 0 0 0];

internalField   nonuniform List<vector> 
10000
(
(0 0 0)
(1.43233e-20 0 0)
(5.67959e-18 0 0)
(-1.22894e-18 3.03576e-17 0)
(-2.60785e-18 0 0)
(-3.70417e-20 0 0)
(-5.46455e-20 0 0)
(1.34698e-20 0 0)
(-2.09033e-36 0 0)
(2.71526e-17 9.75778e-17 0)
(2.09727e-16 0 0)
(6.98332e-21 -1.34441e-16 0)
(-2.22827e-16 0 0)
(-2.03996e-17 0 0)
(5.83786e-18 0 0)
(3.74645e-18 3.25259e-17 0)
(-5.94545e-18 0 0)
(-8.71267e-21 0 0)
(-6.08284e-37 0 0)
(-3.48169e-23 0 0)
(1.93699e-27 0 0)
(-2.56148e-18 9.32411e-17 0)
(2.16507e-18 0 0)
(4.89268e-20 0 0)
(6.4504e-21 0 0)
(-4.8039e-20 0 0)
(-1.10892e-16 -1.17093e-16 0)
(5.90344e-20 0 0)
(1.09229e-16 0 0)
(1.64834e-22 1.2143e-16 0)
(-4.06291e-17 0 0)
(-5.92188e-32 -1.2143e-16 0)
(4.06291e-17 -2.1684e-18 0)
(-1.08329e-16 0 0)
(-6.84226e-19 0 0)
(2.45125e-18 9.54094e-17 0)
(-2.87083e-17 0 0)
(5.14941e-17 0 0)
(-1.3211e-16 0 0)
(8.82481e-18 -9.97462e-17 0)
(9.23136e-17 0 0)
(-9.22176e-17 0 0)
(5.00735e-16 -9.32411e-17 0)
(1.53993e-11 1.95156e-17 0)
(1.21931e-07 -2.55871e-16 0)
(7.09505e-05 -1.08209e-15 0)
(0.00456079 -3.43038e-15 0)
(0.0541619 1.74915e-15 0)
(0.212714 -6.87019e-16 0)
(0.504825 3.25914e-16 0)
(0.835967 8.74296e-16 0)
(0.907112 1.46584e-15 0)
(0.674685 9.5898e-16 0)
(0.219434 -2.19216e-16 0)
(0.0109035 -1.79816e-15 0)
(4.66552e-05 6.9386e-16 0)
(1.20356e-08 -1.0842e-18 0)
(3.39248e-13 -1.90819e-16 0)
(2.1756e-18 0 0)
(-1.50515e-16 0 0)
(-1.4284e-16 0 0)
(-1.84586e-17 0 0)
(2.26706e-21 0 0)
(1.03713e-16 -5.63783e-17 0)
(-3.46367e-20 -2.08166e-16 0)
(-1.02625e-16 -5.31257e-17 0)
(-1.0905e-18 0 0)
(-6.43116e-23 0 0)
(2.05812e-17 0 0)
(1.40948e-16 0 0)
(-2.28177e-20 0 0)
(-1.29313e-16 0 0)
(1.69035e-17 7.15571e-17 0)
(-7.15961e-19 2.68881e-16 0)
(-4.75389e-17 1.0083e-16 0)
(9.67811e-18 0 0)
(1.52269e-16 0 0)
(1.85492e-18 0 0)
(-1.5912e-16 1.95156e-17 0)
(-1.96921e-18 0 0)
(1.61433e-16 0 0)
(3.32154e-19 0 0)
(-1.61376e-16 0 0)
(1.56836e-18 0 0)
(1.59033e-16 2.49366e-17 0)
(7.6461e-17 0 0)
(-8.07605e-17 0 0)
(-2.61607e-21 0 0)
(-4.15354e-22 0 0)
(-2.14273e-18 0 0)
(-1.74611e-17 -3.25259e-18 0)
(-1.31876e-16 0 0)
(-8.72956e-18 0 0)
(1.84155e-17 0 0)
(1.43111e-16 0 0)
(1.76442e-18 0 0)
(-1.40291e-16 2.92734e-17 0)
(-2.07822e-17 0 0)
(-9.32425e-23 0 0)
(0 0 0)
(0 0 0)
(2.16903e-18 0 0)
(6.98144e-17 2.81892e-17 0)
(7.01944e-19 2.08166e-16 0)
(-5.51277e-17 3.03576e-17 0)
(-1.81312e-18 3.25259e-17 0)
(-5.5372e-18 0 0)
(1.37764e-19 0 0)
(1.22407e-35 0 0)
(1.24674e-18 0 0)
(8.00875e-17 0 0)
(2.49744e-20 0 0)
(-8.90752e-17 0 0)
(-4.16581e-18 0 0)
(6.91922e-17 3.03576e-17 0)
(2.68431e-18 2.14671e-16 0)
(-6.90012e-17 3.03576e-17 0)
(-1.50539e-18 0 0)
(-1.98539e-32 0 0)
(-4.77967e-20 0 0)
(3.37869e-23 0 0)
(-4.02059e-18 2.1684e-18 0)
(2.01751e-18 0 0)
(4.58271e-18 0 0)
(2.14521e-19 2.60208e-17 0)
(-4.90779e-18 0 0)
(-1.13841e-17 6.72203e-17 0)
(4.04742e-19 1.6263e-16 0)
(5.2012e-18 0 0)
(4.44211e-21 0 0)
(-1.08329e-16 0 0)
(-2.39058e-30 0 0)
(1.08329e-16 -9.10727e-17 0)
(-1.17398e-22 0 0)
(-8.19266e-19 3.46943e-17 0)
(1.15805e-17 2.47197e-16 0)
(-9.52776e-17 6.28835e-17 0)
(8.78645e-17 0 0)
(-5.03756e-17 0 0)
(2.76091e-17 1.49619e-16 0)
(8.42333e-19 0 0)
(-9.50489e-25 0 0)
(3.19085e-16 9.32411e-17 0)
(1.53992e-11 -6.50519e-18 0)
(1.21931e-07 -2.4286e-15 0)
(7.09505e-05 1.53965e-16 0)
(0.00456079 -4.61447e-16 0)
(0.0541619 5.47107e-16 0)
(0.212714 1.0391e-15 0)
(0.504825 1.97513e-15 0)
(0.835967 2.43667e-15 0)
(0.907112 1.66177e-15 0)
(0.674685 2.42933e-16 0)
(0.219434 3.8615e-16 0)
(0.0109035 -1.03351e-15 0)
(4.66552e-05 7.26385e-17 0)
(1.20356e-08 -1.02999e-16 0)
(3.39646e-13 -4.11995e-16 0)
(2.70815e-17 0 0)
(-1.32374e-16 0 0)
(-1.34074e-16 0 0)
(-1.84786e-17 1.51788e-17 0)
(1.07871e-18 0 0)
(4.51438e-17 1.40946e-17 0)
(-1.64985e-59 2.81892e-17 0)
(-4.84465e-17 2.38524e-17 0)
(-2.36515e-18 0 0)
(-4.97207e-21 0 0)
(2.09092e-17 0 0)
(1.39563e-16 1.40946e-17 0)
(3.46655e-19 0 0)
(-5.32151e-17 0 0)
(5.05942e-17 0 0)
(-1.88343e-17 7.26413e-17 0)
(-1.37925e-16 0 0)
(4.08334e-19 4.33679e-18 0)
(1.5912e-16 0 0)
(1.66022e-17 0 0)
(-1.42377e-16 1.22514e-16 0)
(-2.26469e-17 0 0)
(1.51647e-16 0 0)
(8.70326e-18 0 0)
(-1.51714e-16 0 0)
(2.18462e-17 1.95156e-17 0)
(1.48671e-16 1.26851e-16 0)
(6.09251e-17 -1.6263e-17 0)
(-9.1479e-17 0 0)
(-2.82095e-19 0 0)
(-3.53879e-20 0 0)
(-2.87053e-17 -3.25259e-18 0)
(-6.11866e-18 -1.04083e-16 0)
(-1.08763e-16 -1.0842e-18 0)
(-8.47089e-18 1.95156e-17 0)
(1.72496e-17 0 0)
(1.39975e-16 0 0)
(1.81606e-17 -5.42099e-18 0)
(-1.28248e-16 1.32272e-16 0)
(-3.71149e-17 1.51788e-17 0)
(-1.75647e-19 0 0)
(0 1.6263e-17 0)
(0 0 0)
(2.01283e-17 0 0)
(2.21405e-16 0 0)
(5.43077e-18 2.81892e-17 0)
(-1.84122e-16 5.85467e-17 0)
(-8.54984e-18 2.36355e-16 0)
(-6.68321e-17 4.11995e-17 0)
(-3.95399e-19 0 0)
(1.52235e-34 0 0)
(1.36181e-17 0 0)
(2.05726e-16 0 0)
(1.24835e-18 4.33679e-18 0)
(-2.43486e-16 0 0)
(-2.16621e-18 4.98731e-17 0)
(2.21611e-16 0 0)
(1.29748e-18 1.73472e-17 0)
(-2.09599e-16 0 0)
(-1.5333e-17 0 0)
(-9.61524e-30 2.38524e-17 0)
(-5.35518e-18 0 0)
(4.20547e-20 0 0)
(3.53205e-18 0 0)
(-1.08702e-18 2.1684e-17 0)
(5.40584e-17 4.33679e-17 0)
(5.88728e-19 2.25513e-16 0)
(-6.91495e-17 2.60208e-17 0)
(-7.55434e-17 0 0)
(2.32145e-18 0 0)
(6.64471e-17 0 0)
(1.07027e-18 0 0)
(-4.47158e-29 0 0)
(-7.0883e-29 1.6263e-16 0)
(4.51276e-31 9.54094e-17 0)
(3.22051e-21 0 0)
(1.54228e-18 1.6263e-16 0)
(5.83867e-17 8.45675e-17 0)
(-1.20701e-16 2.66713e-16 0)
(4.81224e-17 8.45675e-17 0)
(-1.03074e-16 4.55363e-17 0)
(8.32474e-17 2.25513e-16 0)
(5.53033e-18 2.60208e-17 0)
(4.96601e-23 0 0)
(2.70406e-16 0 0)
(1.53991e-11 -2.77555e-16 0)
(1.21931e-07 -1.69785e-15 0)
(7.09505e-05 -8.89095e-17 0)
(0.00456079 3.25625e-15 0)
(0.0541619 -3.45063e-16 0)
(0.212714 3.51553e-15 0)
(0.504825 2.06194e-15 0)
(0.835967 9.45548e-16 0)
(0.907112 7.13872e-16 0)
(0.674685 3.644e-17 0)
(0.219434 1.87664e-15 0)
(0.0109035 -6.96894e-16 0)
(4.66552e-05 -1.54167e-15 0)
(1.20356e-08 -6.11488e-16 0)
(3.40008e-13 -2.45029e-16 0)
(1.16032e-17 0 0)
(-1.12486e-16 -7.37255e-17 0)
(-9.66122e-17 7.37255e-17 0)
(-3.18975e-17 1.2902e-16 0)
(2.90936e-17 2.81892e-17 0)
(1.32393e-16 1.30104e-16 0)
(-4.69126e-57 8.89043e-17 0)
(-1.57507e-16 1.36609e-16 0)
(-3.96082e-17 1.19262e-17 0)
(-2.0568e-20 0 0)
(4.00875e-17 1.51788e-17 0)
(1.28909e-16 1.38777e-16 0)
(-1.11151e-18 8.67359e-18 0)
(-7.1283e-17 1.0842e-17 0)
(3.33357e-17 -1.0842e-18 0)
(4.87065e-19 -1.05167e-16 0)
(-9.36229e-17 8.67359e-18 0)
(8.59666e-18 1.26851e-16 0)
(1.09545e-16 2.60208e-17 0)
(5.16248e-17 0 0)
(-9.0497e-17 1.95156e-17 0)
(-6.1503e-17 1.19262e-17 0)
(6.46522e-17 0 0)
(3.72051e-17 -5.20415e-17 0)
(-5.56779e-17 5.20415e-17 0)
(4.71514e-17 1.4203e-16 0)
(9.58144e-17 0 0)
(-3.88143e-21 -1.35525e-16 0)
(-9.21315e-17 -5.63783e-17 0)
(-2.70424e-18 5.20415e-17 0)
(-2.85549e-19 -4.98731e-17 0)
(-9.03242e-17 5.42099e-17 0)
(-2.47868e-23 -2.1684e-18 0)
(1.07255e-18 1.13841e-16 0)
(-3.75877e-17 1.38777e-16 0)
(-2.78501e-17 1.84314e-17 0)
(1.05065e-16 -2.1684e-18 0)
(9.75837e-17 -1.18178e-16 0)
(-6.41588e-17 0 0)
(-1.14006e-16 1.31188e-16 0)
(-1.22119e-17 3.25259e-17 0)
(0 1.32272e-16 0)
(-2.1684e-18 -2.1684e-18 0)
(7.68007e-18 -2.1684e-18 0)
(9.98402e-17 -2.1684e-18 0)
(5.43021e-17 2.60208e-17 0)
(1.69943e-17 2.40692e-16 0)
(-5.66704e-17 1.30104e-17 0)
(-2.04289e-16 -2.1684e-18 0)
(-1.08559e-17 -2.1684e-18 0)
(-8.57129e-32 0 0)
(-5.40366e-19 0 0)
(2.46647e-17 -4.33679e-18 0)
(2.22751e-18 -1.66967e-16 0)
(3.13247e-17 0 0)
(-8.96508e-19 2.75386e-16 0)
(3.82463e-17 9.32411e-17 0)
(4.09916e-19 0 0)
(-4.5736e-17 -2.1684e-18 0)
(3.33404e-17 3.03576e-17 0)
(-4.82388e-28 2.2985e-16 0)
(-6.87753e-17 3.68627e-17 0)
(4.54708e-18 0 0)
(7.5054e-17 3.68627e-17 0)
(-4.86004e-18 2.25513e-16 0)
(1.72534e-16 4.11995e-17 0)
(1.36978e-18 8.67359e-18 0)
(-2.21191e-16 -2.1684e-18 0)
(-2.5196e-16 -4.33679e-18 0)
(3.25724e-17 0 0)
(2.05451e-16 -2.1684e-18 0)
(1.18043e-17 0 0)
(1.92193e-27 0 0)
(-1.17586e-27 0 0)
(8.11047e-30 0 0)
(6.98051e-20 -2.1684e-18 0)
(1.43288e-17 0 0)
(2.07419e-16 0 0)
(-1.2915e-17 2.81892e-17 0)
(-1.3839e-16 -2.1684e-18 0)
(-7.89034e-17 0 0)
(6.22308e-30 2.60208e-17 0)
(6.9257e-17 -2.1684e-18 0)
(3.03196e-19 0 0)
(3.14701e-16 3.46943e-17 0)
(1.53986e-11 9.10727e-17 0)
(1.21931e-07 3.33933e-16 0)
(7.09505e-05 -1.38786e-16 0)
(0.00456079 1.3321e-15 0)
(0.0541619 -6.94667e-16 0)
(0.212714 -4.87902e-16 0)
(0.504825 -1.72456e-15 0)
(0.835967 -1.28666e-15 0)
(0.907112 3.99115e-16 0)
(0.674685 1.53412e-15 0)
(0.219434 8.37423e-16 0)
(0.0109035 9.14135e-17 0)
(4.66552e-05 -1.40181e-15 0)
(1.20356e-08 8.78201e-17 0)
(3.40242e-13 2.49366e-17 0)
(-5.37884e-17 0 0)
(-2.70498e-17 1.0842e-18 0)
(6.21418e-18 0 0)
(-9.0267e-17 2.81892e-17 0)
(2.0628e-17 1.39862e-16 0)
(9.70855e-17 8.78201e-17 0)
(-2.53468e-55 -1.40946e-17 0)
(-9.73146e-17 1.07336e-16 0)
(-1.08041e-16 1.35525e-16 0)
(1.08138e-18 2.92734e-17 0)
(1.09739e-16 1.33356e-16 0)
(6.12778e-17 1.4203e-16 0)
(-5.75089e-17 2.60208e-17 0)
(-1.15915e-16 1.26851e-16 0)
(-9.05559e-22 1.05167e-16 0)
(3.79716e-18 2.7105e-17 0)
(4.81706e-17 1.31188e-16 0)
(7.49779e-21 1.51788e-16 0)
(2.91631e-18 1.39862e-16 0)
(-2.05938e-18 2.1684e-17 0)
(-1.09418e-16 2.05998e-17 0)
(-1.28076e-18 1.2902e-16 0)
(5.40704e-18 1.34441e-16 0)
(1.07943e-16 3.03576e-17 0)
(8.62443e-17 1.4203e-16 0)
(-5.5342e-17 1.36609e-16 0)
(-7.79055e-17 0 0)
(-1.48636e-19 -7.80623e-17 0)
(6.13766e-17 0 0)
(-2.43887e-17 7.91465e-17 0)
(-8.01085e-18 -2.38524e-17 0)
(3.32583e-17 7.80623e-17 0)
(-3.25848e-20 0 0)
(2.13173e-17 6.72203e-17 0)
(-1.0676e-16 1.14925e-16 0)
(-1.26021e-16 1.46367e-16 0)
(-3.21823e-18 1.22514e-16 0)
(-7.9253e-19 3.25259e-18 0)
(8.19383e-17 0 0)
(-5.03232e-18 8.67359e-17 0)
(-3.35259e-17 1.57209e-16 0)
(-1.36609e-16 8.78201e-17 0)
(-2.1684e-18 2.1684e-18 0)
(4.67256e-17 2.1684e-18 0)
(2.68997e-16 2.1684e-18 0)
(1.2973e-16 1.25767e-16 0)
(-1.96658e-16 0 0)
(-2.20737e-16 -2.53702e-16 0)
(-1.62729e-17 -4.33679e-17 0)
(6.06848e-24 2.1684e-18 0)
(-3.04138e-27 0 0)
(3.18541e-18 -2.1684e-18 0)
(9.4313e-17 -6.50519e-17 0)
(4.53224e-18 1.17093e-16 0)
(1.81782e-16 0 0)
(4.7452e-20 0 0)
(7.94001e-17 -9.10727e-17 0)
(2.38911e-18 9.10727e-17 0)
(-1.26856e-16 2.1684e-18 0)
(5.75435e-17 2.1684e-18 0)
(-3.82083e-26 2.1684e-18 0)
(-2.14585e-16 0 0)
(6.10974e-17 0 0)
(2.02226e-16 2.53702e-16 0)
(-1.99879e-17 3.46943e-17 0)
(-5.90202e-17 -1.73472e-17 0)
(2.79065e-24 -2.34187e-16 0)
(-2.65712e-17 -4.98731e-17 0)
(-9.06467e-17 -9.10727e-17 0)
(9.24357e-17 0 0)
(1.29608e-17 2.1684e-18 0)
(4.79927e-28 0 0)
(6.24027e-25 0 0)
(-3.10468e-23 0 0)
(2.63544e-25 0 0)
(1.1494e-18 2.1684e-18 0)
(6.67939e-17 0 0)
(2.52869e-17 9.32411e-17 0)
(-7.96197e-17 -9.32411e-17 0)
(-1.95375e-17 2.1684e-18 0)
(-2.00074e-16 0 0)
(1.01535e-27 0 0)
(2.11683e-16 2.1684e-18 0)
(1.64671e-17 1.0842e-17 0)
(3.05093e-16 2.47197e-16 0)
(1.53993e-11 7.58939e-17 0)
(1.21931e-07 2.43728e-15 0)
(7.09505e-05 -2.38538e-16 0)
(0.00456079 -2.43348e-15 0)
(0.0541619 3.63224e-16 0)
(0.212714 -2.27468e-15 0)
(0.504825 -1.24142e-15 0)
(0.835967 -1.1445e-15 0)
(0.907112 -1.10754e-15 0)
(0.674685 -2.50829e-16 0)
(0.219434 -1.80601e-15 0)
(0.0109035 3.85012e-16 0)
(4.66552e-05 9.69236e-16 0)
(1.20356e-08 3.15502e-16 0)
(3.39955e-13 4.54279e-16 0)
(2.79941e-17 -5.42099e-18 0)
(-9.52941e-17 1.17093e-16 0)
(-9.61895e-17 9.75778e-18 0)
(3.22831e-17 0 0)
(6.06479e-17 5.74625e-17 0)
(-4.04267e-17 -4.55363e-17 0)
(-2.63494e-53 0 0)
(4.44522e-17 -3.14417e-17 0)
(-5.91503e-17 7.26413e-17 0)
(9.98442e-19 1.23599e-16 0)
(1.09296e-16 1.84314e-17 0)
(2.90018e-18 1.73472e-17 0)
(-3.42001e-31 -5.20415e-17 0)
(-9.5008e-18 5.20415e-17 0)
(-1.62981e-20 7.58939e-18 0)
(2.46463e-17 1.0842e-16 0)
(-1.81473e-17 9.54094e-17 0)
(2.30998e-19 -1.30104e-17 0)
(3.36854e-17 8.89043e-17 0)
(1.04816e-19 0 0)
(-7.23349e-18 5.20415e-17 0)
(7.34949e-18 1.44198e-16 0)
(-4.77375e-21 1.40946e-16 0)
(2.06998e-18 1.34441e-16 0)
(-1.29765e-21 2.60208e-17 0)
(-4.11197e-18 2.49366e-17 0)
(-1.0917e-16 8.78201e-17 0)
(-1.40341e-18 7.80623e-17 0)
(4.98494e-17 1.25767e-16 0)
(-5.28045e-17 2.27682e-17 0)
(-4.08817e-17 7.80623e-17 0)
(-2.51469e-17 -4.98731e-17 0)
(2.88628e-19 -8.02307e-17 0)
(1.19616e-16 -6.72203e-17 0)
(2.1379e-17 -4.98731e-17 0)
(2.99029e-17 9.64936e-17 0)
(9.66539e-19 1.39862e-16 0)
(-7.41567e-18 1.45283e-16 0)
(-4.60533e-17 6.28835e-17 0)
(-2.65931e-17 -8.56517e-17 0)
(-7.63189e-17 0 0)
(-1.81061e-16 -8.78201e-17 0)
(0 0 0)
(1.67648e-17 0 0)
(2.13294e-16 0 0)
(1.30385e-18 -1.25767e-16 0)
(-2.1856e-16 -2.55871e-16 0)
(-1.29051e-17 -4.77047e-17 0)
(-4.03413e-21 0 0)
(7.54579e-23 0 0)
(-6.50748e-23 0 0)
(3.12608e-17 2.1684e-18 0)
(2.37871e-16 1.19262e-16 0)
(5.35859e-17 2.64544e-16 0)
(-1.26651e-16 8.67359e-18 0)
(1.26751e-17 -2.38524e-16 0)
(1.94069e-16 -5.42099e-17 0)
(2.83033e-18 -9.32411e-17 0)
(-2.13003e-16 0 0)
(-6.24853e-18 -2.60208e-17 0)
(-2.47653e-24 -2.34187e-16 0)
(-1.87781e-17 -3.68627e-17 0)
(1.8138e-16 0 0)
(8.95682e-19 1.73472e-17 0)
(-2.04621e-16 -2.27682e-16 0)
(-1.20462e-17 -3.68627e-17 0)
(3.89163e-23 -2.60208e-17 0)
(-1.55181e-29 0 0)
(-1.97052e-28 9.54094e-17 0)
(2.37294e-31 0 0)
(3.92257e-24 0 0)
(-5.04337e-27 0 0)
(6.45209e-24 0 0)
(-4.7173e-20 0 0)
(4.08509e-22 0 0)
(1.24593e-17 0 0)
(2.0541e-16 0 0)
(-5.15879e-20 0 0)
(-2.01344e-16 0 0)
(-1.60425e-17 0 0)
(-1.08125e-17 0 0)
(2.96752e-23 0 0)
(8.32792e-18 0 0)
(8.84858e-18 1.30104e-17 0)
(4.63431e-16 3.03576e-17 0)
(1.53987e-11 -3.66459e-16 0)
(1.21931e-07 1.61762e-15 0)
(7.09505e-05 -1.51797e-17 0)
(0.00456079 -1.84579e-15 0)
(0.0541619 1.05335e-15 0)
(0.212714 -8.59762e-16 0)
(0.504825 -2.66954e-16 0)
(0.835967 -6.05123e-16 0)
(0.907112 -2.45229e-15 0)
(0.674685 -1.63737e-15 0)
(0.219434 -1.68218e-15 0)
(0.0109035 8.78646e-16 0)
(4.66552e-05 1.51782e-16 0)
(1.20356e-08 -2.40692e-16 0)
(3.39309e-13 1.30104e-16 0)
(4.44273e-17 -1.20346e-16 0)
(-2.87528e-18 1.73472e-17 0)
(-2.47339e-17 0 0)
(2.44319e-17 0 0)
(-5.41201e-17 0 0)
(-2.62539e-19 -8.78201e-17 0)
(-2.76501e-51 1.40946e-17 0)
(2.7773e-19 -8.78201e-17 0)
(3.66471e-17 0 0)
(-6.57358e-17 -1.0842e-17 0)
(3.08654e-17 -1.13841e-16 0)
(4.1855e-17 -8.67359e-18 0)
(-4.00033e-29 0 0)
(-4.21864e-17 -4.33679e-18 0)
(-3.71587e-19 -1.06251e-16 0)
(5.14005e-17 -3.25259e-18 0)
(-5.18298e-17 -1.73472e-17 0)
(6.99937e-18 -1.17093e-16 0)
(1.09648e-16 -1.73472e-17 0)
(7.03759e-18 0 0)
(-1.02054e-21 -5.20415e-17 0)
(3.20916e-17 1.73472e-17 0)
(-1.2761e-19 2.05998e-17 0)
(1.13213e-57 1.73472e-17 0)
(-2.18841e-19 0 0)
(-3.23114e-17 0 0)
(-6.40957e-18 -1.40946e-17 0)
(3.54514e-17 8.78201e-17 0)
(-4.42817e-26 1.30104e-17 0)
(-2.38701e-17 0 0)
(-1.37956e-16 5.20415e-17 0)
(-1.1273e-16 -5.09573e-17 0)
(-1.07428e-17 2.27682e-17 0)
(1.08451e-18 -1.05167e-16 0)
(1.30335e-16 -1.25767e-16 0)
(1.5172e-16 -1.51788e-17 0)
(1.09356e-17 2.1684e-17 0)
(-3.30765e-17 1.6263e-17 0)
(-1.61471e-16 -6.39677e-17 0)
(-1.22722e-16 -1.32272e-16 0)
(9.45293e-20 -1.43114e-16 0)
(-5.42099e-17 -1.4203e-16 0)
(0 0 0)
(3.52601e-21 0 0)
(-2.54858e-21 -3.03576e-17 0)
(-5.98557e-18 -2.38524e-16 0)
(-1.07523e-17 -4.77047e-17 0)
(-9.35324e-21 0 0)
(3.97907e-20 0 0)
(7.06871e-20 0 0)
(-7.74819e-20 0 0)
(4.89115e-17 0 0)
(2.73133e-16 0 0)
(1.27651e-18 4.55363e-17 0)
(-2.77941e-16 0 0)
(-4.92793e-17 -3.25259e-17 0)
(1.27445e-17 0 0)
(5.26188e-18 -9.32411e-17 0)
(-3.25842e-17 0 0)
(-4.24777e-20 0 0)
(-7.92239e-23 -2.81892e-17 0)
(-2.42107e-21 0 0)
(1.03746e-17 0 0)
(-1.79499e-18 -9.32411e-17 0)
(-1.9219e-17 -4.33679e-17 0)
(-1.84336e-21 0 0)
(3.24951e-21 0 0)
(-3.2163e-25 0 0)
(-3.43474e-27 0 0)
(9.21486e-27 0 0)
(-4.82138e-23 0 0)
(-1.36901e-23 0 0)
(-3.14556e-21 0 0)
(-5.30029e-18 0 0)
(3.77792e-20 -2.38524e-17 0)
(5.6808e-18 0 0)
(1.46574e-17 -3.03576e-17 0)
(-4.24085e-19 -2.34187e-16 0)
(-1.09415e-17 -3.03576e-17 0)
(4.44007e-21 0 0)
(-4.28565e-21 0 0)
(5.00834e-20 0 0)
(-3.31198e-17 0 0)
(2.6853e-17 -1.7564e-16 0)
(5.07559e-16 0 0)
(1.53982e-11 -2.08166e-16 0)
(1.21931e-07 1.73472e-17 0)
(7.09505e-05 1.28594e-15 0)
(0.00456079 2.0678e-16 0)
(0.0541619 4.02952e-16 0)
(0.212714 -2.21534e-16 0)
(0.504825 -5.58475e-16 0)
(0.835967 1.38029e-16 0)
(0.907112 5.68286e-16 0)
(0.674685 1.822e-18 0)
(0.219434 3.70558e-16 0)
(0.0109035 1.61533e-15 0)
(4.66552e-05 -6.9386e-16 0)
(1.20356e-08 -4.01153e-17 0)
(3.39373e-13 2.7105e-17 0)
(1.49918e-16 -1.84314e-17 0)
(-3.39832e-17 0 0)
(-5.32872e-17 0 0)
(4.95994e-17 0 0)
(-3.72201e-17 0 0)
(-1.71159e-18 0 0)
(-2.07647e-48 -2.1684e-18 0)
(1.84365e-18 0 0)
(1.85873e-18 0 0)
(-7.75892e-17 -5.20415e-17 0)
(7.75446e-17 -9.75778e-18 0)
(1.59272e-16 0 0)
(-4.57632e-27 5.20415e-17 0)
(-1.52898e-16 0 0)
(-6.57889e-18 -2.1684e-18 0)
(5.4879e-17 -1.19262e-17 0)
(-5.00985e-17 0 0)
(3.32465e-20 -9.75778e-18 0)
(7.7242e-17 0 0)
(-3.44083e-17 0 0)
(-2.5813e-20 0 0)
(1.11853e-16 0 0)
(5.53674e-18 0 0)
(-9.84713e-55 0 0)
(-4.1503e-18 0 0)
(-1.0964e-16 0 0)
(1.41378e-19 0 0)
(1.12592e-16 0 0)
(-8.00766e-24 0 0)
(-2.06419e-17 0 0)
(-1.40944e-16 0 0)
(-4.43556e-17 0 0)
(-3.27359e-18 0 0)
(-5.24755e-17 0 0)
(9.51296e-17 -2.05998e-17 0)
(1.60851e-16 0 0)
(-2.33449e-19 0 0)
(-1.21764e-16 0 0)
(-1.59698e-16 0 0)
(-4.41068e-17 -2.92734e-17 0)
(1.27013e-18 -1.84314e-17 0)
(0 -1.95156e-17 0)
(0 2.1684e-17 0)
(4.138e-19 0 0)
(-1.39339e-19 0 0)
(-2.02356e-17 -5.42099e-17 0)
(1.11756e-18 0 0)
(-1.54612e-20 0 0)
(4.5819e-18 0 0)
(5.38554e-18 1.73472e-17 0)
(-7.42102e-18 0 0)
(4.42772e-17 -2.1684e-18 0)
(2.67065e-16 0 0)
(-5.56938e-18 0 0)
(-2.88463e-16 0 0)
(-3.09462e-17 0 0)
(7.42512e-17 0 0)
(8.69945e-18 9.32411e-17 0)
(-7.45404e-17 2.60208e-17 0)
(-4.96815e-18 0 0)
(-1.5183e-20 0 0)
(2.08146e-20 0 0)
(5.30749e-17 0 0)
(-1.30276e-18 9.32411e-17 0)
(-5.45348e-17 0 0)
(1.83945e-20 0 0)
(1.05756e-19 0 0)
(-1.26475e-21 0 0)
(-6.73423e-23 0 0)
(1.25929e-22 0 0)
(-5.30256e-20 0 0)
(-4.29616e-21 0 0)
(-8.82344e-19 0 0)
(-6.67377e-17 -3.46943e-17 0)
(2.86778e-19 -2.27682e-16 0)
(6.86083e-17 -3.68627e-17 0)
(1.32077e-19 0 0)
(-2.72598e-18 -2.81892e-17 0)
(3.37213e-18 0 0)
(-1.13235e-19 0 0)
(5.87332e-20 0 0)
(6.02209e-18 0 0)
(-1.08419e-16 4.77047e-17 0)
(5.42987e-17 0 0)
(6.02021e-16 0 0)
(1.53982e-11 1.6263e-16 0)
(1.21931e-07 8.02307e-17 0)
(7.09505e-05 -4.90087e-16 0)
(0.00456079 1.33863e-15 0)
(0.0541619 -3.84791e-16 0)
(0.212714 1.0536e-15 0)
(0.504825 9.95756e-16 0)
(0.835967 9.01833e-16 0)
(0.907112 1.21095e-15 0)
(0.674685 1.42723e-16 0)
(0.219434 4.5219e-16 0)
(0.0109035 -2.79618e-17 0)
(4.66552e-05 3.14405e-17 0)
(1.20356e-08 5.42099e-18 0)
(3.39228e-13 -6.50519e-18 0)
(4.20922e-17 -2.60208e-17 0)
(-2.98739e-18 0 0)
(-2.59452e-17 -1.40946e-17 0)
(3.05264e-18 0 0)
(-9.86e-17 -1.73472e-17 0)
(-2.68483e-17 -9.75778e-18 0)
(-5.65604e-46 -1.20346e-16 0)
(2.69772e-17 -1.0842e-17 0)
(2.11638e-17 0 0)
(-8.00016e-17 5.20415e-17 0)
(6.29208e-17 0 0)
(1.20653e-16 -7.58939e-18 0)
(-2.39965e-25 -5.20415e-17 0)
(-1.20869e-16 -8.67359e-18 0)
(-1.4625e-17 0 0)
(6.26613e-17 -1.23599e-16 0)
(-4.05339e-17 -2.05998e-17 0)
(5.32288e-18 0 0)
(1.39882e-16 -2.38524e-17 0)
(1.41082e-17 -5.42099e-18 0)
(-2.72517e-19 1.05167e-16 0)
(-7.15884e-18 1.0842e-18 0)
(1.67027e-19 -2.05998e-17 0)
(1.37115e-51 -1.51788e-17 0)
(7.48703e-18 -1.19262e-17 0)
(-1.24733e-18 0 0)
(1.21477e-18 5.20415e-17 0)
(1.06312e-17 0 0)
(-1.02282e-20 0 0)
(-2.00105e-17 0 0)
(-1.40604e-16 0 0)
(-1.35974e-16 -2.1684e-18 0)
(-2.9751e-17 -1.0842e-16 0)
(7.81676e-18 -1.0842e-18 0)
(1.40788e-16 0 0)
(1.41473e-16 0 0)
(1.62747e-17 -1.51788e-17 0)
(-1.66534e-17 1.0842e-17 0)
(-1.42612e-16 1.34441e-16 0)
(-1.40596e-16 2.05998e-17 0)
(-1.36334e-17 7.58939e-18 0)
(0 8.67359e-18 0)
(5.42099e-17 2.23345e-16 0)
(3.61588e-18 3.90311e-17 0)
(-1.55168e-18 9.32411e-17 0)
(-7.95303e-17 -9.10727e-17 0)
(-6.48152e-18 2.1684e-18 0)
(2.35961e-18 0 0)
(6.79126e-17 2.60208e-17 0)
(1.95311e-17 2.14671e-16 0)
(-9.221e-17 3.25259e-17 0)
(9.96452e-17 2.38524e-17 0)
(1.97999e-16 1.0842e-16 0)
(-1.59348e-17 -1.0842e-16 0)
(-1.93828e-16 0 0)
(3.82007e-19 -1.79977e-16 0)
(1.9728e-16 1.73472e-17 0)
(3.98534e-17 -2.1684e-18 0)
(-1.97784e-16 2.36355e-16 0)
(-7.78629e-17 1.95156e-17 0)
(-2.48128e-18 0 0)
(2.45188e-18 0 0)
(1.62901e-16 0 0)
(-1.73737e-18 -4.33679e-18 0)
(-1.71887e-16 0 0)
(2.7193e-18 0 0)
(5.77875e-19 0 0)
(-4.44056e-19 0 0)
(-7.53645e-20 0 0)
(8.81898e-20 0 0)
(-5.07071e-18 0 0)
(-2.94054e-19 0 0)
(-1.13303e-17 0 0)
(-2.01427e-16 0 0)
(3.21224e-18 0 0)
(2.18592e-16 0 0)
(9.56425e-19 0 0)
(-4.10818e-17 0 0)
(4.40668e-17 0 0)
(-8.07129e-18 0 0)
(9.78031e-18 -6.50519e-18 0)
(7.95841e-17 3.90311e-17 0)
(-4.283e-20 2.34187e-16 0)
(-8.64058e-17 1.6263e-16 0)
(5.30213e-16 0 0)
(1.53986e-11 3.66459e-16 0)
(1.21931e-07 -1.5027e-15 0)
(7.09505e-05 -2.76704e-15 0)
(0.00456079 3.43691e-15 0)
(0.0541619 -1.07946e-15 0)
(0.212714 1.12877e-15 0)
(0.504825 1.90635e-15 0)
(0.835967 1.17651e-15 0)
(0.907112 1.24633e-15 0)
(0.674685 5.86684e-16 0)
(0.219434 1.11626e-15 0)
(0.0109035 -2.06487e-15 0)
(4.66552e-05 -1.55793e-15 0)
(1.20356e-08 2.22261e-16 0)
(3.39375e-13 -5.63783e-17 0)
(1.48708e-16 -1.27935e-16 0)
(-3.61839e-17 -1.84314e-17 0)
(-5.77645e-17 -1.19262e-16 0)
(4.55023e-17 -1.84314e-17 0)
(-2.45989e-17 -1.20346e-16 0)
(-9.45526e-17 -1.73472e-17 0)
(-1.38189e-43 -1.84314e-17 0)
(9.41487e-17 0 0)
(6.72719e-17 -5.63783e-17 0)
(-3.66156e-17 4.66205e-17 0)
(-2.0455e-17 0 0)
(1.5546e-17 -1.2902e-16 0)
(-2.16909e-23 -2.7105e-17 0)
(-1.61671e-17 -1.27935e-16 0)
(-2.90018e-17 -2.27682e-17 0)
(7.68234e-17 -5.42099e-18 0)
(-2.41572e-17 0 0)
(-1.20204e-17 -1.19262e-17 0)
(1.02594e-16 -1.25767e-16 0)
(4.80943e-17 -1.23599e-16 0)
(-1.54679e-18 -2.1684e-18 0)
(-3.70073e-17 -1.16009e-16 0)
(6.77594e-19 -1.40946e-16 0)
(7.95178e-49 -1.31188e-16 0)
(3.16615e-17 -1.26851e-16 0)
(7.25804e-18 -2.38524e-17 0)
(5.67604e-18 -5.20415e-17 0)
(2.98552e-17 0 0)
(-1.01187e-18 0 0)
(-6.00777e-19 -1.30104e-17 0)
(-1.28613e-16 0 0)
(-1.52266e-16 1.11672e-16 0)
(-2.9828e-17 0 0)
(1.37895e-17 0 0)
(1.12616e-16 7.37255e-17 0)
(9.98349e-17 -7.37255e-17 0)
(2.1464e-17 -1.32272e-16 0)
(2.28091e-17 -1.40946e-17 0)
(-1.11823e-16 5.42099e-18 0)
(-1.16789e-16 1.26851e-16 0)
(-1.56172e-17 1.31188e-16 0)
(-7.48097e-17 1.27935e-16 0)
(2.34187e-16 3.90311e-17 0)
(2.57526e-17 4.11995e-17 0)
(-1.09375e-17 0 0)
(-2.1774e-16 3.25259e-17 0)
(-3.48091e-17 -9.54094e-17 0)
(5.26343e-17 3.90311e-17 0)
(2.19286e-16 6.28835e-17 0)
(3.52339e-17 3.25259e-17 0)
(-2.63006e-16 5.85467e-17 0)
(2.65265e-16 2.4286e-16 0)
(-4.10817e-17 -2.1684e-18 0)
(-2.33623e-16 -1.86482e-16 0)
(-5.21703e-17 -2.1684e-18 0)
(-1.10939e-16 -2.1684e-18 0)
(1.44944e-16 -2.1684e-18 0)
(2.37487e-16 -2.4286e-16 0)
(-1.16813e-17 2.81892e-17 0)
(-2.50462e-16 5.85467e-17 0)
(-2.31548e-17 -2.1684e-18 0)
(4.11552e-17 2.81892e-17 0)
(-9.72203e-17 -1.51788e-17 0)
(-1.89524e-17 -2.01661e-16 0)
(7.21845e-17 -1.95156e-17 0)
(5.63115e-17 3.03576e-17 0)
(9.33584e-19 4.98731e-17 0)
(-1.78618e-17 2.38524e-17 0)
(-6.88878e-18 0 0)
(4.27176e-18 0 0)
(-6.87732e-17 2.38524e-17 0)
(-6.60159e-18 -4.33679e-18 0)
(6.15676e-17 0 0)
(-5.97366e-18 4.11995e-17 0)
(2.53325e-17 2.49366e-16 0)
(4.1584e-18 3.46943e-17 0)
(-3.32091e-17 0 0)
(-7.53727e-17 -9.54094e-17 0)
(1.11083e-16 0 0)
(-5.52705e-17 -8.67359e-18 0)
(6.1197e-17 -1.92987e-16 0)
(2.4577e-16 -1.0842e-17 0)
(9.41018e-20 0 0)
(-2.99497e-16 1.30104e-17 0)
(6.29508e-16 0 0)
(1.53989e-11 6.50519e-18 0)
(1.21931e-07 -2.60424e-15 0)
(7.09505e-05 5.68153e-16 0)
(0.00456079 1.15362e-16 0)
(0.0541619 6.78776e-16 0)
(0.212714 -4.85265e-16 0)
(0.504825 -6.09245e-16 0)
(0.835967 1.51453e-17 0)
(0.907112 8.28617e-16 0)
(0.674685 8.57555e-16 0)
(0.219434 -4.31094e-17 0)
(0.0109035 -3.1941e-16 0)
(4.66552e-05 -7.63246e-16 0)
(1.20356e-08 6.61361e-16 0)
(3.39174e-13 -1.92987e-16 0)
(1.21633e-16 0 0)
(-3.20392e-17 0 0)
(-2.98104e-17 0 0)
(2.24836e-19 0 0)
(-9.07033e-17 -7.26413e-17 0)
(1.23065e-17 0 0)
(-5.87436e-40 -2.38524e-17 0)
(-1.51903e-17 -9.75778e-18 0)
(8.76688e-17 -1.11672e-16 0)
(2.48026e-17 -8.34833e-17 0)
(-6.89213e-17 5.52941e-17 0)
(3.42112e-17 -4.66205e-17 0)
(-1.63815e-21 0 0)
(-4.37246e-17 -8.34833e-17 0)
(6.03231e-17 0 0)
(4.00237e-17 1.84314e-17 0)
(-6.49088e-17 -8.45675e-17 0)
(-1.12392e-16 1.84314e-17 0)
(3.05411e-17 -6.17993e-17 0)
(1.44482e-16 -2.05998e-17 0)
(-1.57155e-17 0 0)
(-1.22636e-16 -1.24683e-16 0)
(-2.1411e-18 -7.69781e-17 0)
(3.59651e-46 -1.51788e-17 0)
(9.60106e-17 -5.42099e-17 0)
(3.17993e-17 -1.25767e-16 0)
(3.22147e-17 -1.19262e-17 0)
(9.05762e-17 0 0)
(-1.55839e-17 -2.1684e-17 0)
(2.54861e-18 -1.26851e-16 0)
(1.44321e-17 0 0)
(-1.21753e-16 1.13841e-16 0)
(-9.19361e-17 1.36609e-16 0)
(2.21382e-17 2.49366e-17 0)
(9.82958e-18 0 0)
(-3.4676e-17 -7.37255e-17 0)
(7.25647e-17 -1.13841e-16 0)
(1.16101e-16 -6.50519e-18 0)
(-4.90798e-18 -1.6263e-17 0)
(-3.25193e-17 2.49366e-17 0)
(-5.50498e-17 2.27682e-17 0)
(-1.77809e-16 2.49366e-17 0)
(1.45283e-16 4.11995e-17 0)
(8.36277e-19 2.23345e-16 0)
(-6.91661e-17 4.11995e-17 0)
(-6.84381e-17 2.23345e-16 0)
(-2.3744e-17 9.10727e-17 0)
(1.60794e-16 2.62376e-16 0)
(3.6029e-17 2.4286e-16 0)
(-9.35228e-20 3.25259e-17 0)
(-3.49425e-17 1.97324e-16 0)
(-4.29293e-17 4.33679e-18 0)
(-1.84044e-16 -2.40692e-16 0)
(3.03852e-17 -3.46943e-17 0)
(-1.25569e-16 1.84314e-16 0)
(-5.6488e-17 2.36355e-16 0)
(1.45706e-16 3.68627e-17 0)
(5.78397e-17 -6.07151e-17 0)
(4.7394e-17 1.95156e-17 0)
(-1.69026e-16 2.38524e-16 0)
(-2.78064e-29 5.85467e-17 0)
(9.59606e-17 2.4286e-16 0)
(-9.70999e-17 1.71303e-16 0)
(-6.34241e-17 6.28835e-17 0)
(5.54544e-17 3.68627e-17 0)
(1.86085e-16 2.47197e-16 0)
(-2.87998e-20 2.73218e-16 0)
(-7.14648e-17 2.27682e-16 0)
(-8.24444e-17 2.81892e-17 0)
(1.96941e-17 5.85467e-17 0)
(-1.62625e-16 2.40692e-16 0)
(-7.8014e-17 2.1684e-18 0)
(1.70603e-16 0 0)
(2.15047e-17 0 0)
(1.18283e-16 4.55363e-17 0)
(-1.19728e-18 2.2985e-16 0)
(-1.84152e-16 4.55363e-17 0)
(1.82958e-20 9.32411e-17 0)
(7.75087e-17 2.1684e-18 0)
(-1.10131e-16 1.84314e-16 0)
(-4.21314e-17 -3.90311e-17 0)
(1.94654e-16 -4.11995e-17 0)
(3.35829e-18 -2.45029e-16 0)
(-1.16114e-16 -1.7564e-16 0)
(5.58678e-16 0 0)
(1.53986e-11 -3.20923e-16 0)
(1.21931e-07 -6.24498e-16 0)
(7.09505e-05 1.47677e-15 0)
(0.00456079 -3.63063e-15 0)
(0.0541619 1.01589e-15 0)
(0.212714 -1.49008e-16 0)
(0.504825 -6.55103e-18 0)
(0.835967 1.38717e-16 0)
(0.907112 -4.37666e-16 0)
(0.674685 -6.72926e-16 0)
(0.219434 -5.35657e-16 0)
(0.0109035 -2.04336e-16 0)
(4.66552e-05 3.82707e-16 0)
(1.20356e-08 -2.52618e-16 0)
(3.39944e-13 -2.37439e-16 0)
(1.74275e-16 1.09504e-16 0)
(-3.49326e-17 7.58939e-18 0)
(-1.13559e-16 1.27935e-16 0)
(-1.05435e-17 2.60208e-17 0)
(-3.8698e-17 7.26413e-17 0)
(-3.31812e-17 0 0)
(-1.11838e-37 -1.32272e-16 0)
(2.94722e-17 -5.42099e-18 0)
(1.31429e-18 3.14417e-17 0)
(1.01463e-16 -7.15571e-17 0)
(1.24424e-17 0 0)
(-8.94763e-17 8.45675e-17 0)
(-6.27317e-19 0 0)
(-2.14713e-17 8.34833e-17 0)
(8.26045e-17 0 0)
(2.17432e-17 -8.45675e-17 0)
(-8.94748e-17 7.58939e-18 0)
(-1.04215e-17 1.2143e-16 0)
(9.64236e-17 6.17993e-17 0)
(6.98267e-17 0 0)
(-6.646e-17 -8.13149e-17 0)
(-6.97913e-17 4.44521e-17 0)
(5.5597e-17 7.69781e-17 0)
(-2.81636e-43 0 0)
(-1.11281e-17 5.42099e-17 0)
(9.22703e-17 -2.27682e-17 0)
(1.12019e-16 0 0)
(2.59472e-18 0 0)
(-1.18923e-16 -1.17093e-16 0)
(1.6042e-17 0 0)
(9.48461e-17 0 0)
(2.20398e-19 -3.79469e-17 0)
(-1.1572e-16 8.56517e-17 0)
(-8.11328e-17 0 0)
(3.52661e-17 0 0)
(2.02204e-18 7.37255e-17 0)
(9.6795e-17 5.20415e-17 0)
(7.05001e-17 -9.32411e-17 0)
(-7.28128e-17 -1.17093e-16 0)
(-9.61754e-17 -1.19262e-17 0)
(-7.36883e-18 0 0)
(-8.34833e-17 0 0)
(3.27428e-16 -6.72203e-17 0)
(2.28153e-17 0 0)
(-2.13877e-16 -6.07151e-17 0)
(-1.52525e-16 4.11995e-17 0)
(1.33622e-16 2.1684e-18 0)
(2.16945e-16 2.1684e-17 0)
(1.4185e-17 0 0)
(-1.03265e-17 -3.03576e-17 0)
(-2.13563e-16 -3.46943e-17 0)
(-2.14666e-16 -2.23345e-16 0)
(1.92045e-17 -3.68627e-17 0)
(2.2021e-16 2.8406e-16 0)
(-2.72449e-17 3.46943e-17 0)
(-2.21045e-16 4.98731e-17 0)
(-3.04769e-17 -4.33679e-18 0)
(2.41953e-16 2.1684e-18 0)
(1.24432e-16 -3.90311e-17 0)
(-1.33776e-16 0 0)
(-4.67291e-28 2.1684e-18 0)
(9.81485e-17 0 0)
(-1.12408e-16 0 0)
(-1.44463e-16 4.33679e-18 0)
(1.19467e-16 2.1684e-18 0)
(2.31182e-16 8.67359e-18 0)
(-3.8333e-19 0 0)
(-2.28497e-16 -2.1684e-18 0)
(-2.46138e-16 0 0)
(2.03094e-16 0 0)
(-6.89562e-18 -2.1684e-18 0)
(-3.11317e-16 -7.37255e-17 0)
(-1.47978e-17 0 0)
(1.01629e-16 0 0)
(3.63664e-16 0 0)
(1.96858e-17 0 0)
(-2.84515e-16 0 0)
(9.22598e-20 6.28835e-17 0)
(2.59014e-16 0 0)
(-1.64462e-18 0 0)
(-2.35982e-16 2.45029e-16 0)
(-1.47042e-17 4.11995e-17 0)
(-3.27156e-18 -3.46943e-17 0)
(-1.20658e-16 0 0)
(6.40685e-16 0 0)
(1.53983e-11 1.23599e-16 0)
(1.21931e-07 1.84747e-15 0)
(7.09505e-05 -6.54894e-16 0)
(0.00456079 -1.02302e-15 0)
(0.0541619 -3.15551e-16 0)
(0.212714 -1.1736e-16 0)
(0.504825 1.24469e-16 0)
(0.835967 3.78632e-18 0)
(0.907112 2.67589e-17 0)
(0.674685 -1.43938e-16 0)
(0.219434 -2.21968e-16 0)
(0.0109035 -9.51776e-16 0)
(4.66552e-05 -8.7383e-16 0)
(1.20356e-08 -6.28835e-16 0)
(3.39939e-13 3.88143e-16 0)
(5.82923e-17 1.40946e-16 0)
(-1.87225e-18 2.1684e-18 0)
(-3.74416e-18 8.78201e-17 0)
(-1.77304e-17 7.58939e-17 0)
(-1.25825e-16 1.32272e-16 0)
(-1.51964e-16 3.03576e-17 0)
(-3.66091e-35 0 0)
(1.27669e-16 2.1684e-17 0)
(2.49751e-17 1.23599e-16 0)
(-4.11165e-17 2.1684e-17 0)
(6.09117e-17 -1.40946e-17 0)
(3.68001e-17 8.78201e-17 0)
(-8.04996e-18 2.92734e-17 0)
(-1.11077e-16 1.32272e-16 0)
(-2.87474e-17 2.92734e-17 0)
(1.3003e-16 2.05998e-17 0)