/*--------------------------------*- C++ -*----------------------------------*\
| =========                 |                                                 |
| \\      /  F ield         | OpenFOAM: The Open Source CFD Toolbox           |
|  \\    /   O peration     | Version:  4.1                                   |
|   \\  /    A nd           | Web:      www.OpenFOAM.org                      |
|    \\/     M anipulation  |                                                 |
\*---------------------------------------------------------------------------*/
FoamFile
{
    version     2.0;
    format      ascii;
    class       volVectorField;
    location    "0.32";
    object      U;
}
// * * * * * * * * * * * * * * * * * * * * * * * * * * * * * * * * * * * * * //

dimensions      [0 1 -1 0 0 0 0];

internalField   nonuniform List<vector> 
10000
(
(0 0 0)
(1.51038e-16 0 0)
(2.98958e-16 0 0)
(9.83688e-17 1.53956e-16 0)
(-1.22631e-16 0 0)
(-2.8032e-16 0 0)
(-2.52693e-16 0 0)
(-3.59571e-17 0 0)
(-3.53844e-22 0 0)
(2.28331e-16 1.47451e-16 0)
(4.87108e-16 0 0)
(1.55583e-16 -1.56125e-16 0)
(-2.25598e-16 0 0)
(3.94175e-17 0 0)
(1.59734e-16 0 0)
(-4.78245e-17 1.32272e-16 0)
(-2.55472e-16 0 0)
(-1.38304e-16 0 0)
(-3.49826e-17 0 0)
(-1.95744e-16 0 0)
(-3.60655e-19 0 0)
(1.52697e-16 1.19262e-16 0)
(3.7972e-17 0 0)
(1.25275e-16 0 0)
(2.34061e-14 3.90311e-17 0)
(2.73173e-10 -3.90311e-17 0)
(2.95185e-07 -5.32775e-15 0)
(4.15019e-05 3.42836e-15 0)
(0.00110398 -4.08257e-15 0)
(0.00850489 4.53851e-15 0)
(0.0290097 9.54327e-15 0)
(0.06162 6.65673e-15 0)
(0.101162 1.02126e-14 0)
(0.144093 5.26486e-15 0)
(0.1888 7.13798e-15 0)
(0.234583 1.42155e-14 0)
(0.281099 -1.94615e-14 0)
(0.328159 1.22284e-14 0)
(0.375653 -9.5356e-15 0)
(0.423516 1.31926e-14 0)
(0.471722 2.37478e-14 0)
(0.520263 6.44652e-14 0)
(0.569147 3.98673e-14 0)
(0.618386 2.77227e-14 0)
(0.667974 6.91801e-15 0)
(0.717859 1.98311e-14 0)
(0.767853 1.16239e-14 0)
(0.817496 5.85062e-14 0)
(0.86527 1.35704e-14 0)
(0.907094 -3.70025e-14 0)
(0.933003 -2.29717e-14 0)
(0.936764 8.49807e-15 0)
(0.925002 1.1571e-14 0)
(0.926394 1.30961e-14 0)
(0.927472 1.31221e-14 0)
(0.927709 1.01205e-14 0)
(0.927823 7.75121e-15 0)
(0.927968 6.39801e-15 0)
(0.928251 5.81897e-15 0)
(0.928419 5.03161e-15 0)
(0.928255 4.8076e-15 0)
(0.92809 9.09261e-15 0)
(0.928116 5.31456e-15 0)
(0.928368 8.34291e-15 0)
(0.928882 4.74089e-15 0)
(0.92899 -1.34561e-15 0)
(0.927733 -5.30294e-15 0)
(0.929015 -5.34063e-15 0)
(0.931717 -8.89003e-15 0)
(0.928459 -4.1927e-15 0)
(0.925801 -2.26494e-15 0)
(0.92508 -3.23389e-15 0)
(0.924948 -2.6092e-15 0)
(0.925971 -3.55872e-15 0)
(0.926779 -3.44293e-15 0)
(0.924591 -4.44256e-15 0)
(0.907463 -4.62892e-15 0)
(0.806321 -5.22361e-15 0)
(0.449431 -1.51316e-15 0)
(0.0571001 5.78676e-17 0)
(0.00067139 3.46736e-17 0)
(5.3351e-07 1.13841e-16 0)
(2.16482e-11 3.25259e-18 0)
(7.21203e-16 5.96309e-17 0)
(2.91492e-16 1.07336e-16 0)
(8.11221e-17 0 0)
(-1.73459e-16 0 0)
(-8.02162e-17 0 0)
(-8.7093e-17 0 0)
(-1.98773e-16 0 0)
(-2.70887e-16 -6.50519e-18 0)
(-4.2261e-16 0 0)
(-2.30738e-16 1.07336e-16 0)
(4.9077e-17 0 0)
(2.61044e-16 0 0)
(2.67377e-17 0 0)
(-2.23556e-16 1.65882e-16 0)
(-2.95087e-16 1.19262e-16 0)
(-2.08028e-16 5.31257e-17 0)
(-7.80623e-17 1.30104e-16 0)
(0 0 0)
(1.95936e-16 0 0)
(3.07408e-16 1.38777e-16 0)
(1.01631e-16 3.3827e-16 0)
(-1.26888e-16 1.25767e-16 0)
(-3.18484e-16 2.49366e-16 0)
(-3.0081e-16 4.98731e-17 0)
(-4.27607e-17 0 0)
(-2.46313e-20 0 0)
(2.38681e-16 0 0)
(5.38077e-16 0 0)
(1.76361e-16 0 0)
(-1.88015e-16 0 0)
(6.28252e-17 0 0)
(1.62151e-16 1.30104e-16 0)
(-4.94082e-17 3.16586e-16 0)
(-2.61099e-16 1.27935e-16 0)
(-1.57791e-16 0 0)
(-5.79801e-17 0 0)
(-2.20311e-16 0 0)
(-5.13193e-19 0 0)
(1.85874e-16 2.1684e-18 0)
(2.34905e-17 0 0)
(1.81321e-16 1.71303e-16 0)
(2.33996e-14 3.77301e-16 0)
(2.73173e-10 5.52941e-16 0)
(2.95185e-07 -2.40042e-15 0)
(4.15019e-05 5.14145e-15 0)
(0.00110398 5.54543e-15 0)
(0.00850489 -2.10108e-15 0)
(0.0290097 1.73586e-14 0)
(0.06162 -1.23994e-14 0)
(0.101162 1.24396e-14 0)
(0.144093 2.71707e-15 0)
(0.1888 6.49521e-15 0)
(0.234583 6.00456e-15 0)
(0.281099 -1.75262e-15 0)
(0.328159 1.93344e-14 0)
(0.375653 -1.04524e-14 0)
(0.423516 1.8414e-14 0)
(0.471722 2.81941e-14 0)
(0.520263 1.43296e-14 0)
(0.569147 2.20935e-14 0)
(0.618386 3.11782e-14 0)
(0.667974 2.36553e-14 0)
(0.717859 1.66036e-14 0)
(0.767853 9.86011e-15 0)
(0.817496 2.90084e-14 0)
(0.86527 9.19958e-15 0)
(0.907094 -4.9835e-16 0)
(0.933003 -8.94415e-15 0)
(0.936764 8.69839e-15 0)
(0.925002 9.20061e-15 0)
(0.926394 1.33082e-14 0)
(0.927472 9.1745e-15 0)
(0.927709 9.56558e-15 0)
(0.927823 6.7621e-15 0)
(0.927968 4.26428e-15 0)
(0.928251 5.78715e-15 0)
(0.928419 5.95146e-15 0)
(0.928255 9.86161e-15 0)
(0.92809 1.0844e-14 0)
(0.928116 7.6669e-15 0)
(0.928368 5.47404e-15 0)
(0.928882 6.76046e-15 0)
(0.92899 2.83776e-15 0)
(0.927733 4.13481e-15 0)
(0.929015 -4.18852e-15 0)
(0.931717 -6.59259e-15 0)
(0.928459 1.39637e-15 0)
(0.925801 -2.18872e-15 0)
(0.92508 -9.9334e-16 0)
(0.924948 -7.36296e-16 0)
(0.925971 -1.60271e-15 0)
(0.926779 1.20984e-16 0)
(0.924591 6.66666e-18 0)
(0.907463 -1.23303e-15 0)
(0.806321 -4.73567e-15 0)
(0.449431 -3.00823e-16 0)
(0.0571001 1.48802e-16 0)
(0.00067139 7.57401e-16 0)
(5.3351e-07 1.60461e-16 0)
(2.16483e-11 1.98408e-16 0)
(7.24322e-16 2.64544e-16 0)
(2.62358e-16 2.10334e-16 0)
(6.51609e-17 1.84314e-17 0)
(-1.71477e-16 0 0)
(-8.83369e-17 1.73472e-17 0)
(-1.27894e-16 0 0)
(-2.53254e-16 3.79469e-17 0)
(-1.77332e-16 3.36101e-17 0)
(-2.90537e-16 1.8865e-16 0)
(-1.734e-16 3.08997e-16 0)
(1.76403e-17 1.19262e-16 0)
(2.27516e-16 0 0)
(-9.6344e-19 4.33679e-17 0)
(-2.47586e-16 2.88397e-16 0)
(-3.57025e-16 3.20923e-16 0)
(-3.04104e-16 2.41776e-16 0)
(-2.82976e-16 3.33933e-16 0)
(0 0 0)
(2.54225e-16 0 0)
(5.27367e-16 0 0)
(1.15745e-16 1.04083e-16 0)
(-3.60022e-16 3.44775e-16 0)
(-3.25423e-16 5.72457e-16 0)
(-3.3351e-16 2.51534e-16 0)
(-3.2842e-17 0 0)
(-6.70814e-19 0 0)
(2.52241e-16 0 0)
(5.78378e-16 0 0)
(2.13764e-16 2.1684e-18 0)
(-1.46863e-16 5.63783e-17 0)
(8.12934e-17 2.8406e-16 0)
(3.27802e-16 1.56125e-16 0)
(-4.26273e-17 7.80623e-17 0)
(-4.09147e-16 0 0)
(-1.68997e-16 0 0)
(-9.07117e-17 1.01915e-16 0)
(-2.25543e-16 0 0)
(3.50113e-19 0 0)
(2.33795e-16 1.51788e-17 0)
(8.89192e-17 1.64798e-16 0)
(1.95962e-16 4.4669e-16 0)
(2.35616e-14 8.34833e-16 0)
(2.73174e-10 1.99926e-15 0)
(2.95185e-07 -1.12106e-15 0)
(4.15019e-05 5.96764e-15 0)
(0.00110398 1.41902e-14 0)
(0.00850489 -2.2247e-14 0)
(0.0290097 3.1019e-14 0)
(0.06162 -1.68681e-14 0)
(0.101162 1.08982e-14 0)
(0.144093 2.58336e-15 0)
(0.1888 6.31794e-15 0)
(0.234583 5.76161e-15 0)
(0.281099 2.84542e-15 0)
(0.328159 2.19296e-14 0)
(0.375653 -1.09161e-14 0)
(0.423516 1.91467e-14 0)
(0.471722 3.0381e-14 0)
(0.520263 -8.55755e-16 0)
(0.569147 1.34593e-14 0)
(0.618386 2.57723e-14 0)
(0.667974 2.52505e-14 0)
(0.717859 1.07957e-14 0)
(0.767853 1.10686e-14 0)
(0.817496 1.85382e-14 0)
(0.86527 9.77119e-15 0)
(0.907094 5.91416e-15 0)
(0.933003 -8.229e-15 0)
(0.936764 8.3947e-15 0)
(0.925002 9.36809e-15 0)
(0.926394 1.46119e-14 0)
(0.927472 9.58124e-15 0)
(0.927709 5.75008e-15 0)
(0.927823 2.01538e-15 0)
(0.927968 1.91066e-15 0)
(0.928251 2.68627e-15 0)
(0.928419 3.74265e-15 0)
(0.928255 8.83125e-15 0)
(0.92809 9.56742e-15 0)
(0.928116 7.02931e-15 0)
(0.928368 6.56391e-15 0)
(0.928882 8.42176e-15 0)
(0.92899 3.9864e-15 0)
(0.927733 5.27456e-15 0)
(0.929015 -1.90883e-15 0)
(0.931717 -3.79316e-15 0)
(0.928459 5.30497e-15 0)
(0.925801 -1.78188e-15 0)
(0.92508 2.00728e-15 0)
(0.924948 3.81269e-16 0)
(0.925971 -1.00856e-15 0)
(0.926779 1.52512e-15 0)
(0.924591 2.01077e-15 0)
(0.907463 1.54505e-15 0)
(0.806321 -7.13309e-16 0)
(0.449431 1.63304e-15 0)
(0.0571001 8.5458e-16 0)
(0.00067139 1.40753e-15 0)
(5.3351e-07 3.68627e-17 0)
(2.16483e-11 9.03137e-16 0)
(8.55653e-16 4.74879e-16 0)
(9.92853e-17 9.75778e-17 0)
(-3.09561e-17 -8.23991e-17 0)
(-1.57988e-16 3.79469e-17 0)
(-8.71612e-17 1.74556e-16 0)
(-1.88312e-16 7.26413e-17 0)
(-2.91146e-16 1.7564e-16 0)
(-1.53138e-16 1.74556e-16 0)
(-1.03644e-16 3.78385e-16 0)
(-1.48886e-16 5.14994e-16 0)
(-4.98178e-17 3.8489e-16 0)
(1.23155e-16 2.27682e-16 0)
(1.90185e-17 1.19262e-16 0)
(-1.97453e-16 3.20923e-16 0)
(-4.04659e-16 5.28005e-16 0)
(-4.04235e-16 4.391e-16 0)
(-4.90058e-16 5.41015e-16 0)
(-2.1684e-18 -2.1684e-18 0)
(2.75159e-16 -2.1684e-18 0)
(5.92662e-16 -2.1684e-18 0)
(1.83011e-16 3.90311e-17 0)
(-3.06063e-16 2.86228e-16 0)
(-6.85847e-16 2.01661e-16 0)
(-3.67237e-16 -2.1684e-18 0)
(-2.05212e-17 -2.1684e-18 0)
(-6.32108e-18 0 0)
(1.45514e-16 0 0)
(4.03486e-16 -4.33679e-18 0)
(2.24951e-16 -9.10727e-17 0)
(1.43365e-16 2.55871e-16 0)
(2.1357e-16 6.07151e-16 0)
(2.73896e-16 3.40438e-16 0)
(-5.23164e-17 0 0)
(-3.74807e-16 -2.1684e-18 0)
(-1.18686e-16 1.17093e-16 0)
(-9.28807e-17 3.55617e-16 0)
(-2.11395e-16 1.73472e-16 0)
(1.03538e-17 6.50519e-18 0)
(2.43848e-16 2.38524e-16 0)
(8.28572e-17 4.48858e-16 0)
(1.11273e-16 2.32018e-16 0)
(2.46156e-14 5.87635e-16 0)
(2.73175e-10 2.6758e-15 0)
(2.95185e-07 -3.49112e-15 0)
(4.15019e-05 1.1649e-14 0)
(0.00110398 1.61957e-14 0)
(0.00850489 -3.68192e-14 0)
(0.0290097 4.36448e-14 0)
(0.06162 -1.25354e-14 0)
(0.101162 7.23514e-15 0)
(0.144093 4.99499e-15 0)
(0.1888 4.35267e-15 0)
(0.234583 6.286e-15 0)
(0.281099 1.4815e-15 0)
(0.328159 2.66799e-14 0)
(0.375653 -1.11389e-14 0)
(0.423516 1.63104e-14 0)
(0.471722 2.52069e-14 0)
(0.520263 -9.01464e-15 0)
(0.569147 9.24206e-15 0)
(0.618386 2.17197e-14 0)
(0.667974 2.46424e-14 0)
(0.717859 8.26296e-15 0)
(0.767853 9.44171e-15 0)
(0.817496 1.47614e-14 0)
(0.86527 7.81241e-15 0)
(0.907094 5.21274e-15 0)
(0.933003 -5.98665e-15 0)
(0.936764 1.01584e-14 0)
(0.925002 1.25508e-14 0)
(0.926394 1.16936e-14 0)
(0.927472 1.15743e-14 0)
(0.927709 3.62016e-15 0)
(0.927823 1.79209e-15 0)
(0.927968 2.85726e-15 0)
(0.928251 1.24099e-16 0)
(0.928419 2.06449e-15 0)
(0.928255 5.3609e-15 0)
(0.92809 6.86998e-15 0)
(0.928116 7.73751e-15 0)
(0.928368 6.31882e-15 0)
(0.928882 6.22227e-15 0)
(0.92899 2.8925e-15 0)
(0.927733 5.08397e-15 0)
(0.929015 4.35818e-15 0)
(0.931717 -4.13632e-16 0)
(0.928459 3.94096e-15 0)
(0.925801 1.74068e-16 0)
(0.92508 4.1953e-15 0)
(0.924948 1.97169e-15 0)
(0.925971 1.68949e-15 0)
(0.926779 3.45164e-15 0)
(0.924591 1.69179e-15 0)
(0.907463 1.98427e-15 0)
(0.806321 1.26379e-15 0)
(0.449431 9.92189e-16 0)
(0.0571001 3.05665e-15 0)
(0.00067139 3.18347e-15 0)
(5.3351e-07 1.19153e-15 0)
(2.16476e-11 9.32411e-16 0)
(4.93178e-16 5.80046e-16 0)
(-1.41683e-16 2.64544e-16 0)
(-3.83266e-17 1.43114e-16 0)
(1.21612e-17 2.0925e-16 0)
(-1.57004e-16 2.30934e-16 0)
(-2.9173e-16 7.91465e-17 0)
(-1.89715e-16 1.82145e-16 0)
(-8.37211e-17 7.91465e-17 0)
(2.00666e-17 1.87566e-16 0)
(-1.58555e-16 3.72964e-16 0)
(-2.09124e-16 5.84383e-16 0)
(-8.89055e-17 5.14994e-16 0)
(-1.59975e-16 3.39354e-16 0)
(-8.77613e-17 2.11419e-16 0)
(-2.79181e-16 3.08997e-16 0)
(-5.38855e-16 2.12503e-16 0)
(-7.32918e-16 3.03576e-16 0)
(-2.1684e-18 2.1684e-18 0)
(2.53465e-16 2.1684e-18 0)
(5.78163e-16 2.1684e-18 0)
(1.52765e-16 1.66967e-16 0)
(-6.21431e-16 -1.64798e-16 0)
(-6.61773e-16 -5.44268e-16 0)
(-3.19479e-16 -2.40692e-16 0)
(-1.55231e-19 2.1684e-18 0)
(-2.44589e-17 0 0)
(1.60853e-16 -2.1684e-18 0)
(4.17108e-16 6.93887e-17 0)
(2.3781e-16 2.38524e-16 0)
(3.91018e-16 6.72203e-17 0)
(2.15109e-16 2.47197e-16 0)
(2.87885e-16 6.50519e-17 0)
(-5.02114e-17 9.32411e-17 0)
(-3.92867e-16 2.1684e-18 0)
(-1.46261e-16 2.1684e-18 0)
(-8.87254e-17 -1.51788e-17 0)
(-2.68612e-16 0 0)
(6.82997e-17 0 0)
(3.55259e-16 2.7105e-16 0)
(4.76698e-17 9.54094e-17 0)
(-1.69367e-16 -1.73472e-17 0)
(2.44378e-14 -2.19008e-16 0)
(2.73179e-10 3.24826e-15 0)
(2.95185e-07 1.73472e-17 0)
(4.15019e-05 4.53211e-15 0)
(0.00110398 2.2707e-14 0)
(0.00850489 -4.7021e-14 0)
(0.0290097 3.9401e-14 0)
(0.06162 -8.20151e-15 0)
(0.101162 1.29077e-15 0)
(0.144093 4.7423e-15 0)
(0.1888 -2.85545e-15 0)
(0.234583 9.43365e-15 0)
(0.281099 -2.8053e-15 0)
(0.328159 2.79406e-14 0)
(0.375653 -1.05473e-14 0)
(0.423516 1.28986e-14 0)
(0.471722 2.49391e-14 0)
(0.520263 -1.09873e-14 0)
(0.569147 6.03908e-15 0)
(0.618386 1.77529e-14 0)
(0.667974 2.27007e-14 0)
(0.717859 7.60958e-15 0)
(0.767853 6.20101e-15 0)
(0.817496 1.31953e-14 0)
(0.86527 5.13971e-15 0)
(0.907094 5.8743e-15 0)
(0.933003 2.40995e-15 0)
(0.936764 7.31864e-15 0)
(0.925002 1.01367e-14 0)
(0.926394 5.38203e-15 0)
(0.927472 1.0701e-14 0)
(0.927709 3.91872e-15 0)
(0.927823 1.48779e-15 0)
(0.927968 3.87757e-15 0)
(0.928251 -3.69624e-15 0)
(0.928419 -1.26309e-15 0)
(0.928255 3.49383e-15 0)
(0.92809 5.44327e-15 0)
(0.928116 8.49066e-15 0)
(0.928368 2.2123e-15 0)
(0.928882 6.34416e-15 0)
(0.92899 1.06071e-15 0)
(0.927733 3.90449e-15 0)
(0.929015 8.92657e-15 0)
(0.931717 1.68006e-16 0)
(0.928459 1.71643e-15 0)
(0.925801 -3.12086e-16 0)
(0.92508 4.51509e-15 0)
(0.924948 1.12631e-15 0)
(0.925971 3.4555e-15 0)
(0.926779 3.89201e-15 0)
(0.924591 2.1641e-16 0)
(0.907463 1.97959e-15 0)
(0.806321 2.10725e-15 0)
(0.449431 -1.11433e-15 0)
(0.0571001 6.86867e-15 0)
(0.00067139 6.90871e-15 0)
(5.3351e-07 1.07552e-15 0)
(2.16475e-11 6.93887e-16 0)
(3.97877e-16 3.26344e-16 0)
(-1.50937e-16 4.32595e-16 0)
(-3.97311e-17 4.10911e-16 0)
(-3.67401e-17 3.78385e-16 0)
(-3.60283e-16 2.38524e-16 0)
(-4.82239e-16 2.2985e-16 0)
(-3.61929e-16 8.67359e-18 0)
(-1.98686e-17 -1.36609e-16 0)
(2.21015e-16 -1.18178e-16 0)
(1.16133e-16 4.22837e-17 0)
(3.76505e-17 4.1308e-16 0)
(3.25762e-17 6.65698e-16 0)
(-1.87721e-16 5.52941e-16 0)
(-3.1357e-16 1.60461e-16 0)
(-4.80784e-16 -1.35525e-16 0)
(-6.89286e-16 -8.34833e-17 0)
(-8.6519e-16 -1.94071e-16 0)
(0 0 0)
(1.63096e-16 0 0)
(2.63741e-16 -1.47451e-16 0)
(-1.43921e-16 -4.03322e-16 0)
(-7.20432e-16 -5.72457e-16 0)
(-3.88543e-16 -2.45029e-16 0)
(-8.16102e-17 -2.1684e-17 0)
(4.95055e-17 0 0)
(-4.501e-17 0 0)
(1.69598e-16 4.55363e-17 0)
(4.34317e-16 3.14417e-16 0)
(2.4151e-16 4.96563e-16 0)
(-2.07634e-17 2.27682e-16 0)
(8.46989e-17 -9.97462e-17 0)
(3.07872e-16 -6.50519e-17 0)
(-4.7983e-17 -9.54094e-17 0)
(-4.00935e-16 0 0)
(-1.91711e-16 -9.97462e-17 0)
(-3.4011e-17 -3.81638e-16 0)
(-1.90523e-17 -1.36609e-16 0)
(2.44435e-16 0 0)
(5.43582e-17 3.03576e-17 0)
(-2.48458e-16 -2.14671e-16 0)
(3.15503e-17 -4.55363e-17 0)
(2.44555e-14 -8.67359e-17 0)
(2.73182e-10 1.07119e-15 0)
(2.95185e-07 2.78856e-15 0)
(4.15019e-05 -2.56964e-15 0)
(0.00110398 2.43044e-14 0)
(0.00850489 -3.82257e-14 0)
(0.0290097 2.53984e-14 0)
(0.06162 -1.91955e-16 0)
(0.101162 -8.49872e-16 0)
(0.144093 4.22833e-15 0)
(0.1888 -6.46206e-15 0)
(0.234583 1.02222e-14 0)
(0.281099 -4.31309e-15 0)
(0.328159 2.5269e-14 0)
(0.375653 -9.65905e-15 0)
(0.423516 9.1504e-15 0)
(0.471722 2.30216e-14 0)
(0.520263 -9.93741e-15 0)
(0.569147 4.26584e-15 0)
(0.618386 1.32822e-14 0)
(0.667974 1.99159e-14 0)
(0.717859 7.26685e-15 0)
(0.767853 5.99344e-15 0)
(0.817496 1.24333e-14 0)
(0.86527 5.84286e-15 0)
(0.907094 7.31951e-15 0)
(0.933003 5.19474e-15 0)
(0.936764 6.68912e-15 0)
(0.925002 5.89605e-15 0)
(0.926394 5.2242e-15 0)
(0.927472 1.05647e-14 0)
(0.927709 2.88997e-15 0)
(0.927823 -7.33733e-16 0)
(0.927968 2.16678e-15 0)
(0.928251 -6.63548e-15 0)
(0.928419 -3.78161e-15 0)
(0.928255 1.6377e-15 0)
(0.92809 4.6915e-15 0)
(0.928116 6.86983e-15 0)
(0.928368 1.24086e-15 0)
(0.928882 6.28185e-15 0)
(0.92899 7.7366e-16 0)
(0.927733 2.53631e-15 0)
(0.929015 6.8716e-15 0)
(0.931717 -8.04796e-16 0)
(0.928459 1.69177e-15 0)
(0.925801 5.46922e-16 0)
(0.92508 3.34306e-15 0)
(0.924948 -5.99945e-16 0)
(0.925971 4.2263e-16 0)
(0.926779 1.94241e-15 0)
(0.924591 -2.06154e-16 0)
(0.907463 1.15723e-15 0)
(0.806321 1.86215e-15 0)
(0.449431 -5.30851e-15 0)
(0.0571001 4.85468e-15 0)
(0.00067139 4.63542e-15 0)
(5.3351e-07 -2.37439e-16 0)
(2.16467e-11 5.87635e-16 0)
(3.6615e-16 6.07151e-17 0)
(1.11101e-17 2.62376e-16 0)
(1.28764e-16 4.55363e-16 0)
(-5.79983e-17 2.33103e-16 0)
(-4.29008e-16 5.52941e-17 0)
(-6.72396e-16 8.89043e-17 0)
(-5.08048e-16 -8.78201e-17 0)
(-1.68469e-16 4.33679e-18 0)
(8.66356e-17 -2.56955e-16 0)
(3.49573e-16 -1.94071e-16 0)
(3.45784e-16 1.09504e-16 0)
(1.18187e-16 4.10911e-16 0)
(-2.76548e-16 3.32849e-16 0)
(-5.48976e-16 -5.52941e-17 0)
(-6.46699e-16 -3.08997e-16 0)
(-5.43913e-16 -2.52618e-16 0)
(-6.46182e-16 -3.54533e-16 0)
(4.33679e-18 0 0)
(1.89456e-16 -1.19262e-16 0)
(-4.91223e-17 -4.61868e-16 0)
(-1.77111e-16 -8.26159e-16 0)
(-3.78371e-16 -6.26667e-16 0)
(-6.80333e-17 -2.77555e-16 0)
(1.69956e-16 0 0)
(1.25114e-16 0 0)
(-4.92984e-17 0 0)
(1.77381e-16 0 0)
(4.19276e-16 7.58939e-17 0)
(2.22019e-17 2.34187e-16 0)
(-3.14419e-16 0 0)
(-3.62477e-17 -5.20415e-17 0)
(2.16898e-16 0 0)
(1.16683e-17 -9.32411e-17 0)
(-2.53593e-16 0 0)
(-2.35048e-16 0 0)
(-4.36845e-17 -1.17093e-16 0)
(1.7597e-17 0 0)
(2.22236e-16 0 0)
(4.05592e-18 -9.32411e-17 0)
(-2.38886e-16 -4.55363e-17 0)
(5.33135e-17 0 0)
(2.44285e-14 2.1684e-18 0)
(2.73183e-10 1.51788e-16 0)
(2.95185e-07 1.37476e-15 0)
(4.15019e-05 -2.6065e-15 0)
(0.00110398 9.12012e-15 0)
(0.00850489 -1.37772e-14 0)
(0.0290097 1.22013e-14 0)
(0.06162 5.0571e-15 0)
(0.101162 -6.45383e-16 0)
(0.144093 4.19398e-15 0)
(0.1888 -7.00024e-15 0)
(0.234583 1.134e-14 0)
(0.281099 -2.63239e-15 0)
(0.328159 1.95696e-14 0)
(0.375653 -7.67635e-15 0)
(0.423516 6.90525e-15 0)
(0.471722 1.80167e-14 0)
(0.520263 -5.23592e-15 0)
(0.569147 3.50871e-15 0)
(0.618386 9.44434e-15 0)
(0.667974 1.69288e-14 0)
(0.717859 7.10014e-15 0)
(0.767853 7.81593e-15 0)
(0.817496 9.46416e-15 0)
(0.86527 8.37086e-15 0)
(0.907094 4.01296e-15 0)
(0.933003 1.00495e-14 0)
(0.936764 1.03488e-14 0)
(0.925002 6.43878e-15 0)
(0.926394 6.02768e-15 0)
(0.927472 1.07961e-14 0)
(0.927709 1.08751e-15 0)
(0.927823 2.66812e-17 0)
(0.927968 -1.2742e-16 0)
(0.928251 -4.43224e-15 0)
(0.928419 -2.2947e-15 0)
(0.928255 2.54132e-17 0)
(0.92809 2.4875e-15 0)
(0.928116 3.19671e-15 0)
(0.928368 8.49784e-16 0)
(0.928882 2.48533e-15 0)
(0.92899 1.09174e-15 0)
(0.927733 2.52496e-15 0)
(0.929015 2.24065e-15 0)
(0.931717 1.07289e-15 0)
(0.928459 8.50254e-16 0)
(0.925801 1.44404e-15 0)
(0.92508 1.47224e-15 0)
(0.924948 -1.62078e-16 0)
(0.925971 -9.22802e-16 0)
(0.926779 1.34313e-16 0)
(0.924591 -2.30769e-17 0)
(0.907463 1.00563e-15 0)
(0.806321 7.71343e-16 0)
(0.449431 -1.5486e-15 0)
(0.0571001 1.64199e-15 0)
(0.00067139 1.50397e-15 0)
(5.3351e-07 -1.51788e-16 0)
(2.16467e-11 -2.81892e-17 0)
(3.70752e-16 0 0)
(6.01586e-17 9.43252e-17 0)
(2.11329e-16 2.48281e-16 0)
(-5.01575e-18 4.66205e-17 0)
(-4.14679e-16 0 0)
(-6.7895e-16 0 0)
(-5.04612e-16 0 0)
(-3.15916e-16 -1.6263e-17 0)
(5.20238e-17 -9.97462e-17 0)
(3.93343e-16 -9.8662e-17 0)
(4.5184e-16 0 0)
(1.7158e-16 0 0)
(-3.1132e-16 4.55363e-17 0)
(-5.90942e-16 5.85467e-17 0)
(-5.70296e-16 -9.32411e-17 0)
(-4.68593e-16 -4.11995e-17 0)
(-4.42353e-16 -1.4203e-16 0)
(3.05744e-16 1.99492e-16 0)
(2.84053e-16 0 0)
(-7.77939e-17 -1.86482e-16 0)
(-1.08639e-16 -4.98731e-16 0)
(-3.4544e-17 -2.58039e-16 0)
(8.84954e-17 0 0)
(3.86874e-16 1.6263e-16 0)
(1.73386e-16 3.66459e-16 0)
(-3.05885e-17 2.2985e-16 0)
(2.27187e-16 5.20415e-17 0)
(4.35529e-16 0 0)
(6.70444e-17 0 0)
(-3.02952e-16 0 0)
(-1.09772e-17 -7.37255e-17 0)
(2.27452e-16 0 0)
(-2.11486e-18 9.32411e-17 0)
(-3.00391e-16 9.10727e-17 0)
(-3.6167e-16 0 0)
(-9.20837e-17 0 0)
(5.06534e-17 0 0)
(2.23804e-16 0 0)
(-1.93716e-18 9.32411e-17 0)
(-2.98214e-16 0 0)
(1.10194e-17 0 0)
(2.43733e-14 1.0842e-17 0)
(2.73183e-10 3.66459e-16 0)
(2.95185e-07 -3.8836e-15 0)
(4.15019e-05 5.52961e-16 0)
(0.00110398 -7.72236e-15 0)
(0.00850489 3.23025e-15 0)
(0.0290097 6.03066e-15 0)
(0.06162 2.04638e-15 0)
(0.101162 5.62996e-15 0)
(0.144093 3.60395e-15 0)
(0.1888 -7.75268e-15 0)
(0.234583 1.24074e-14 0)
(0.281099 -8.53488e-16 0)
(0.328159 1.30334e-14 0)
(0.375653 -4.76328e-15 0)
(0.423516 6.82978e-15 0)
(0.471722 1.29756e-14 0)
(0.520263 -7.85301e-16 0)
(0.569147 3.53928e-15 0)
(0.618386 6.35525e-15 0)
(0.667974 1.29111e-14 0)
(0.717859 3.35799e-15 0)
(0.767853 7.60292e-15 0)
(0.817496 6.53491e-15 0)
(0.86527 1.06394e-14 0)
(0.907094 3.0636e-15 0)
(0.933003 1.46215e-14 0)
(0.936764 9.44123e-15 0)
(0.925002 6.62656e-15 0)
(0.926394 6.66506e-15 0)
(0.927472 6.68005e-15 0)
(0.927709 -1.37305e-15 0)
(0.927823 9.91016e-16 0)
(0.927968 -3.13943e-16 0)
(0.928251 -3.13111e-15 0)
(0.928419 -8.45146e-16 0)
(0.928255 -1.59009e-15 0)
(0.92809 1.08532e-15 0)
(0.928116 4.48033e-16 0)
(0.928368 4.333e-16 0)
(0.928882 -1.47749e-15 0)
(0.92899 2.99551e-16 0)
(0.927733 1.11374e-15 0)
(0.929015 1.4634e-15 0)
(0.931717 2.72844e-15 0)
(0.928459 4.81896e-16 0)
(0.925801 -2.1125e-15 0)
(0.92508 -9.24851e-16 0)
(0.924948 -8.11933e-16 0)
(0.925971 -1.54057e-15 0)
(0.926779 -1.18421e-15 0)
(0.924591 -3.07692e-16 0)
(0.907463 6.60903e-16 0)
(0.806321 -1.89314e-16 0)
(0.449431 1.88938e-15 0)
(0.0571001 -8.81447e-16 0)
(0.00067139 -1.0803e-15 0)
(5.3351e-07 -3.12249e-16 0)
(2.16469e-11 -3.62122e-16 0)
(6.09685e-16 -1.12757e-16 0)
(1.92431e-16 -8.67359e-18 0)
(1.37989e-16 4.66205e-17 0)
(-6.33839e-18 0 0)
(-3.60879e-16 0 0)
(-6.19049e-16 7.58939e-17 0)
(-5.97077e-16 1.98408e-16 0)
(-3.84891e-16 -1.19262e-17 0)
(7.14663e-17 -1.0842e-18 0)
(4.58773e-16 0 0)
(5.52048e-16 -1.58293e-16 0)
(3.51923e-16 -2.93818e-16 0)
(-3.70011e-17 -6.28835e-17 0)
(-5.02315e-16 2.27682e-16 0)
(-7.55117e-16 1.66967e-16 0)
(-6.4051e-16 2.80807e-16 0)
(-5.49689e-16 2.14671e-16 0)
(6.65698e-16 4.83552e-16 0)
(4.08363e-16 1.84314e-16 0)
(-9.95188e-17 1.47451e-16 0)
(-2.87788e-16 -1.79977e-16 0)
(-9.07259e-17 2.1684e-18 0)
(2.93988e-16 5.63783e-17 0)
(4.49587e-16 4.64037e-16 0)
(1.77868e-16 7.3075e-16 0)
(-7.98963e-18 5.44268e-16 0)
(2.56503e-16 2.79723e-16 0)
(3.62875e-16 1.43114e-16 0)
(8.16224e-17 -1.43114e-16 0)
(-2.23055e-16 -7.80623e-17 0)
(-7.76151e-18 -2.64544e-16 0)
(2.32654e-16 -5.85467e-17 0)
(-3.8067e-17 3.90311e-17 0)
(-3.33995e-16 3.40438e-16 0)
(-4.66847e-16 1.58293e-16 0)
(-1.72925e-16 0 0)
(6.5523e-17 0 0)
(2.23192e-16 0 0)
(3.73576e-18 -3.03576e-17 0)
(-3.48493e-16 0 0)
(-1.78216e-17 0 0)
(2.42708e-14 -1.34441e-16 0)
(2.73183e-10 -3.29596e-16 0)
(2.95185e-07 -6.1409e-15 0)
(4.15019e-05 2.82552e-15 0)
(0.00110398 -1.38321e-14 0)
(0.00850489 1.0975e-14 0)
(0.0290097 1.00233e-14 0)
(0.06162 -7.34685e-15 0)
(0.101162 1.39017e-14 0)
(0.144093 2.73424e-15 0)
(0.1888 -6.66356e-15 0)
(0.234583 1.38451e-14 0)
(0.281099 4.966e-16 0)
(0.328159 6.75688e-15 0)
(0.375653 -2.0399e-15 0)
(0.423516 8.31083e-15 0)
(0.471722 6.84518e-15 0)
(0.520263 2.56383e-15 0)
(0.569147 4.50683e-15 0)
(0.618386 3.35468e-15 0)
(0.667974 7.5873e-15 0)
(0.717859 -1.60289e-15 0)
(0.767853 7.74637e-15 0)
(0.817496 6.23149e-15 0)
(0.86527 1.11643e-14 0)
(0.907094 3.73388e-15 0)
(0.933003 1.48102e-14 0)
(0.936764 6.04675e-15 0)
(0.925002 3.54118e-15 0)
(0.926394 5.1159e-15 0)
(0.927472 1.27455e-15 0)
(0.927709 -3.35432e-15 0)
(0.927823 2.2571e-15 0)
(0.927968 -1.1274e-15 0)
(0.928251 -1.98686e-15 0)
(0.928419 3.10025e-16 0)
(0.928255 -2.76103e-15 0)
(0.92809 5.44458e-16 0)
(0.928116 -2.00263e-15 0)
(0.928368 7.87169e-17 0)
(0.928882 -3.13606e-15 0)
(0.92899 8.81413e-16 0)
(0.927733 4.63942e-16 0)
(0.929015 -3.50336e-18 0)
(0.931717 4.61634e-15 0)
(0.928459 -1.68407e-15 0)
(0.925801 -3.83721e-15 0)
(0.92508 -2.45631e-15 0)
(0.924948 -2.15075e-16 0)
(0.925971 1.72544e-16 0)
(0.926779 -1.77478e-15 0)
(0.924591 5.43589e-17 0)
(0.907463 -6.03795e-16 0)
(0.806321 -1.34154e-15 0)
(0.449431 2.68404e-15 0)
(0.0571001 -3.75416e-15 0)
(0.00067139 -4.604e-15 0)
(5.3351e-07 -4.7271e-16 0)
(2.16472e-11 -1.1525e-15 0)
(7.38197e-16 -3.11165e-16 0)
(2.54493e-16 -1.87566e-16 0)
(1.88589e-16 0 0)
(4.48014e-17 0 0)
(-1.27949e-16 -6.72203e-17 0)
(-4.10746e-16 1.82145e-16 0)
(-6.35617e-16 4.06574e-16 0)
(-3.96709e-16 1.90819e-16 0)
(3.98269e-17 4.44521e-17 0)
(4.18438e-16 9.10727e-17 0)
(5.72312e-16 -3.48028e-16 0)
(3.88716e-16 -5.29089e-16 0)
(1.2219e-16 -2.6346e-16 0)
(-3.88787e-16 7.58939e-17 0)
(-7.27233e-16 3.69712e-16 0)
(-6.73481e-16 5.24752e-16 0)
(-7.74118e-16 4.42353e-16 0)
(8.91211e-16 2.45029e-16 0)
(4.81107e-16 1.04083e-16 0)
(-1.01247e-16 1.34441e-16 0)
(-3.23309e-16 2.36355e-16 0)
(1.43836e-17 1.01915e-16 0)
(4.1233e-16 2.66713e-16 0)
(6.32259e-16 2.81892e-16 0)
(2.56852e-16 3.98985e-16 0)
(-1.90608e-16 3.62122e-16 0)
(2.91325e-16 2.62376e-16 0)
(-5.96052e-18 -3.25259e-17 0)
(-1.40917e-16 -2.53702e-16 0)
(-2.0975e-16 -1.73472e-17 0)
(-2.50181e-17 1.01915e-16 0)
(2.50205e-16 1.95156e-17 0)
(1.55799e-16 -1.53956e-16 0)
(-1.74003e-16 1.25767e-16 0)
(-5.43305e-16 2.34187e-16 0)
(-2.35991e-16 8.89043e-17 0)
(7.10571e-17 1.92987e-16 0)
(-1.56845e-16 3.90311e-17 0)
(-8.80364e-17 -2.10334e-16 0)
(1.23885e-16 2.60208e-17 0)
(7.09287e-18 2.62376e-16 0)
(2.39731e-14 6.93887e-17 0)
(2.73182e-10 -1.99059e-15 0)
(2.95185e-07 -2.55871e-15 0)
(4.15019e-05 -5.65971e-16 0)
(0.00110398 -7.71368e-15 0)
(0.00850489 2.68205e-15 0)
(0.0290097 1.56795e-14 0)
(0.06162 -1.6563e-14 0)
(0.101162 2.00801e-14 0)
(0.144093 1.70507e-16 0)
(0.1888 -5.78103e-15 0)
(0.234583 1.23808e-14 0)
(0.281099 1.18963e-15 0)
(0.328159 1.38484e-15 0)
(0.375653 -2.69026e-15 0)
(0.423516 8.65357e-15 0)
(0.471722 -1.15017e-16 0)
(0.520263 5.91468e-15 0)
(0.569147 5.44381e-15 0)
(0.618386 8.47617e-16 0)
(0.667974 3.47974e-15 0)
(0.717859 -1.95287e-15 0)
(0.767853 4.56328e-15 0)
(0.817496 5.0201e-15 0)
(0.86527 9.6803e-15 0)
(0.907094 -1.95228e-15 0)
(0.933003 1.42019e-14 0)
(0.936764 8.69165e-15 0)
(0.925002 4.66406e-15 0)
(0.926394 2.24434e-15 0)
(0.927472 2.54212e-16 0)
(0.927709 -2.76515e-15 0)
(0.927823 8.14729e-16 0)
(0.927968 -3.08668e-15 0)
(0.928251 -7.95506e-16 0)
(0.928419 4.71264e-16 0)
(0.928255 -7.14786e-16 0)
(0.92809 -4.13003e-16 0)
(0.928116 -3.20178e-15 0)
(0.928368 -1.02511e-15 0)
(0.928882 -3.46396e-15 0)
(0.92899 -5.58156e-16 0)
(0.927733 1.46135e-15 0)
(0.929015 -4.27761e-15 0)
(0.931717 2.66614e-15 0)
(0.928459 -1.0912e-15 0)
(0.925801 -4.50825e-15 0)
(0.92508 -3.75708e-15 0)
(0.924948 -1.03936e-15 0)
(0.925971 8.85828e-16 0)
(0.926779 -2.13261e-15 0)
(0.924591 1.47692e-16 0)
(0.907463 -8.18731e-16 0)
(0.806321 -1.87624e-16 0)
(0.449431 -4.74984e-17 0)
(0.0571001 -3.18272e-15 0)
(0.00067139 -3.30699e-15 0)
(5.3351e-07 1.49619e-16 0)
(2.16488e-11 -8.5218e-16 0)
(7.17997e-16 -2.78639e-16 0)
(3.02737e-16 -1.43114e-16 0)
(2.23348e-16 -6.50519e-18 0)
(6.5298e-17 -9.43252e-17 0)
(4.29664e-17 -2.39608e-16 0)
(-1.70155e-16 -8.67359e-18 0)
(-3.98416e-16 2.43945e-16 0)
(-2.91761e-16 3.77301e-16 0)
(-8.75533e-17 1.7564e-16 0)
(2.07049e-16 7.37255e-17 0)
(3.1286e-16 -1.51788e-16 0)
(5.06898e-16 -3.11165e-16 0)
(2.5069e-16 -1.63714e-16 0)
(-2.29987e-16 -1.05167e-16 0)
(-5.60717e-16 1.99492e-16 0)
(-7.44957e-16 3.24175e-16 0)
(-9.36747e-16 3.01407e-16 0)
(6.74371e-16 -2.1684e-18 0)
(3.54866e-16 2.55871e-16 0)
(-3.2205e-17 3.12249e-16 0)
(-2.32518e-17 5.33426e-16 0)
(1.91216e-16 3.68627e-16 0)
(4.03736e-16 5.6812e-16 0)
(4.33095e-16 3.5128e-16 0)
(1.67026e-16 8.89043e-17 0)
(3.5139e-17 1.97324e-16 0)
(-7.6105e-17 -1.01915e-16 0)
(-3.25089e-16 -3.53449e-16 0)
(-7.19038e-17 -1.01915e-16 0)
(-2.13762e-16 2.1684e-16 0)
(1.47038e-17 4.7271e-16 0)
(2.35147e-16 2.58039e-16 0)
(8.82052e-17 2.81892e-17 0)
(-8.61117e-17 1.32272e-16 0)
(-3.61719e-16 4.09827e-16 0)
(-1.08989e-16 2.9707e-16 0)
(8.53378e-17 4.77047e-16 0)
(-1.48754e-16 2.45029e-16 0)
(-9.91357e-17 6.28835e-17 0)
(1.46378e-16 2.58039e-16 0)
(1.89238e-16 5.65951e-16 0)
(2.40356e-14 4.33679e-16 0)
(2.73179e-10 -9.32411e-17 0)
(2.95185e-07 -3.92263e-15 0)
(4.15019e-05 3.5563e-16 0)
(0.00110398 3.21006e-15 0)
(0.00850489 -5.38157e-15 0)
(0.0290097 1.74919e-14 0)
(0.06162 -2.12099e-14 0)
(0.101162 2.01818e-14 0)
(0.144093 -3.06667e-16 0)
(0.1888 -3.20999e-15 0)
(0.234583 8.46984e-15 0)
(0.281099 1.63781e-15 0)
(0.328159 -1.46851e-15 0)
(0.375653 -1.68612e-15 0)
(0.423516 9.6205e-15 0)
(0.471722 -6.87476e-15 0)
(0.520263 8.17435e-15 0)
(0.569147 5.77292e-15 0)
(0.618386 -3.09286e-15 0)
(0.667974 4.89631e-16 0)
(0.717859 -2.34117e-15 0)
(0.767853 2.37238e-15 0)
(0.817496 1.49314e-15 0)
(0.86527 7.76338e-15 0)
(0.907094 -4.16869e-15 0)
(0.933003 1.52199e-14 0)
(0.936764 5.75109e-15 0)
(0.925002 2.5731e-15 0)
(0.926394 -1.04611e-15 0)
(0.927472 -5.97397e-17 0)
(0.927709 -3.60968e-15 0)
(0.927823 -2.79644e-15 0)
(0.927968 -3.28718e-15 0)
(0.928251 1.18435e-15 0)
(0.928419 -8.58876e-17 0)
(0.928255 1.1259e-15 0)
(0.92809 -1.50225e-15 0)
(0.928116 -1.78976e-15 0)
(0.928368 -1.48596e-15 0)
(0.928882 -4.06134e-15 0)
(0.92899 -3.24075e-15 0)
(0.927733 1.19178e-15 0)
(0.929015 -2.84073e-15 0)
(0.931717 -1.797e-15 0)
(0.928459 1.24738e-15 0)
(0.925801 -1.91165e-15 0)
(0.92508 -4.08871e-16 0)
(0.924948 -5.32027e-16 0)
(0.925971 -8.34476e-16 0)
(0.926779 6.3363e-16 0)
(0.924591 7.28717e-16 0)
(0.907463 5.77317e-16 0)
(0.806321 6.50204e-16 0)
(0.449431 -1.70165e-15 0)
(0.0571001 2.21137e-16 0)
(0.00067139 1.73043e-15 0)
(5.3351e-07 -1.19262e-17 0)
(2.16481e-11 8.21822e-16 0)
(9.05277e-16 -5.96309e-17 0)
(2.88405e-16 -1.19262e-17 0)
(1.21524e-16 -4.66205e-17 0)
(-4.59059e-17 -2.10334e-16 0)
(5.98623e-17 -8.13149e-17 0)
(4.47194e-17 0 0)
(-1.22534e-16 -1.95156e-17 0)
(-2.57639e-16 1.79977e-16 0)
(-1.28269e-16 7.37255e-17 0)
(6.40743e-17 2.35271e-16 0)
(2.10503e-16 2.76471e-16 0)
(3.39845e-16 1.05167e-16 0)
(9.56683e-17 -1.50704e-16 0)
(-2.90314e-16 -2.67797e-16 0)
(-5.51542e-16 -3.25259e-18 0)
(-6.73207e-16 7.91465e-17 0)
(-8.50011e-16 1.23599e-16 0)
(8.76032e-16 -2.21176e-16 0)
(4.7672e-16 -9.97462e-17 0)
(-1.36931e-17 -3.68627e-17 0)
(-8.21703e-17 2.38524e-16 0)
(2.67812e-16 1.86482e-16 0)
(6.10303e-16 2.90565e-16 0)
(2.72093e-16 -4.33679e-17 0)
(4.96347e-17 -3.96817e-16 0)
(-2.09692e-16 -2.47197e-16 0)
(-4.40301e-16 -4.7271e-16 0)
(-1.0186e-16 -1.34441e-16 0)
(1.84081e-16 1.56125e-16 0)
(-3.4463e-17 3.68627e-17 0)
(-2.11022e-16 2.49366e-16 0)
(-3.82834e-17 -4.33679e-18 0)
(2.69906e-16 -7.58939e-17 0)
(1.54935e-16 -1.6263e-16 0)
(-4.47405e-17 2.38524e-17 0)
(1.15295e-17 4.33679e-18 0)
(8.30431e-17 5.20415e-17 0)
(-1.02737e-16 -1.23599e-16 0)
(-1.02438e-16 4.33679e-18 0)
(1.2401e-16 8.89043e-17 0)
(1.74528e-16 2.14671e-16 0)
(2.40912e-14 1.43114e-16 0)
(2.73181e-10 1.38127e-15 0)
(2.95185e-07 -1.42897e-15 0)
(4.15019e-05 1.60901e-15 0)
(0.00110398 3.48136e-15 0)