/*--------------------------------*- C++ -*----------------------------------*\
| =========                 |                                                 |
| \\      /  F ield         | OpenFOAM: The Open Source CFD Toolbox           |
|  \\    /   O peration     | Version:  4.1                                   |
|   \\  /    A nd           | Web:      www.OpenFOAM.org                      |
|    \\/     M anipulation  |                                                 |
\*---------------------------------------------------------------------------*/
FoamFile
{
    version     2.0;
    format      ascii;
    class       volVectorField;
    location    "0.42";
    object      U;
}
// * * * * * * * * * * * * * * * * * * * * * * * * * * * * * * * * * * * * * //

dimensions      [0 1 -1 0 0 0 0];

internalField   nonuniform List<vector> 
10000
(
(0 0 0)
(2.05723e-16 0 0)
(3.14228e-16 0 0)
(1.02831e-16 1.58293e-16 0)
(-1.20978e-16 0 0)
(-3.11246e-16 0 0)
(-2.89124e-16 0 0)
(-5.97237e-17 0 0)
(-8.78962e-20 0 0)
(2.57647e-16 1.53956e-16 0)
(5.26017e-16 0 0)
(1.88507e-16 -1.56125e-16 0)
(-1.85791e-16 0 0)
(6.59168e-17 0 0)
(1.62782e-16 0 0)
(-5.66299e-17 1.34441e-16 0)
(-2.67727e-16 0 0)
(-1.22709e-16 0 0)
(2.92452e-14 0 0)
(2.89941e-10 8.67359e-17 0)
(2.81166e-07 1.18394e-15 0)
(3.63764e-05 7.90405e-15 0)
(0.0009135 -3.7564e-15 0)
(0.00680035 1.87166e-14 0)
(0.022796 -3.20224e-15 0)
(0.0480319 -1.21182e-15 0)
(0.0785407 -1.49911e-14 0)
(0.111614 1.93447e-15 0)
(0.146021 -3.07774e-15 0)
(0.181231 7.43123e-15 0)
(0.216987 1.96206e-14 0)
(0.253143 2.71287e-14 0)
(0.289606 1.94386e-14 0)
(0.326316 2.06384e-14 0)
(0.363232 -1.11135e-14 0)
(0.40033 4.68174e-14 0)
(0.437593 -9.80417e-15 0)
(0.475015 -1.87036e-15 0)
(0.512594 -7.80839e-15 0)
(0.550332 7.50034e-15 0)
(0.588234 -3.81045e-15 0)
(0.626302 2.54706e-14 0)
(0.664531 2.59777e-14 0)
(0.702906 1.14914e-13 0)
(0.741387 5.72356e-14 0)
(0.779893 6.58669e-14 0)
(0.818225 9.26414e-14 0)
(0.855856 -5.68863e-15 0)
(0.891203 -1.05305e-13 0)
(0.919781 1.46091e-13 0)
(0.933758 6.99237e-14 0)
(0.933205 3.69845e-14 0)
(0.925534 3.17719e-14 0)
(0.926759 2.48137e-15 0)
(0.927531 2.56674e-16 0)
(0.927773 1.59834e-15 0)
(0.927973 4.54458e-15 0)
(0.928165 1.22583e-14 0)
(0.928436 1.85312e-14 0)
(0.928515 1.51219e-14 0)
(0.928298 1.17648e-14 0)
(0.928155 1.20646e-14 0)
(0.928164 1.08101e-14 0)
(0.928166 1.09507e-14 0)
(0.928115 4.59368e-15 0)
(0.928047 3.04336e-15 0)
(0.928025 6.04693e-15 0)
(0.928148 -3.23515e-15 0)
(0.928509 8.18947e-15 0)
(0.928817 3.50312e-16 0)
(0.929201 -1.33205e-14 0)
(0.930226 -1.86423e-14 0)
(0.926602 -1.94281e-14 0)
(0.924708 -1.13599e-14 0)
(0.926119 -8.99548e-15 0)
(0.926711 -6.06113e-15 0)
(0.927731 -4.50882e-15 0)
(0.928886 -5.46181e-15 0)
(0.9292 -5.56094e-15 0)
(0.92856 -5.53423e-15 0)
(0.927591 -6.99056e-15 0)
(0.926522 -6.37269e-15 0)
(0.92566 -5.74611e-15 0)
(0.924526 -5.98097e-15 0)
(0.919837 -6.33822e-15 0)
(0.892169 -6.26386e-15 0)
(0.749402 -4.76625e-15 0)
(0.336475 -1.36593e-15 0)
(0.0265118 -4.02766e-17 0)
(0.000180042 3.86996e-16 0)
(7.77599e-08 -1.23599e-16 0)
(2.39027e-12 1.06251e-16 0)
(-1.47624e-16 1.38777e-16 0)
(7.77994e-19 0 0)
(1.98793e-16 0 0)
(-2.26908e-17 2.1684e-18 0)
(-2.82399e-16 2.10334e-16 0)
(-3.69549e-16 2.07082e-16 0)
(-3.40335e-16 1.38777e-16 0)
(-2.08166e-16 2.10334e-16 0)
(0 0 0)
(2.34811e-16 0 0)
(3.19383e-16 1.38777e-16 0)
(1.03542e-16 3.42607e-16 0)
(-1.19687e-16 1.27935e-16 0)
(-3.23866e-16 2.68881e-16 0)
(-3.30421e-16 5.20415e-17 0)
(-6.75129e-17 0 0)
(-9.93907e-19 0 0)
(2.51339e-16 0 0)
(5.57437e-16 0 0)
(1.94649e-16 0 0)
(-1.64142e-16 0 0)
(7.7227e-17 0 0)
(1.54358e-16 1.30104e-16 0)
(-6.46907e-17 3.18754e-16 0)
(-2.70371e-16 1.27935e-16 0)
(-1.32279e-16 0 0)
(2.92242e-14 5.63783e-17 0)
(2.89941e-10 5.57278e-16 0)
(2.81166e-07 4.08743e-15 0)
(3.63764e-05 1.17964e-14 0)
(0.0009135 -6.39954e-15 0)
(0.00680035 2.99026e-14 0)
(0.022796 -8.68816e-15 0)
(0.0480319 -1.45328e-14 0)
(0.0785407 -2.92588e-15 0)
(0.111614 2.39364e-14 0)
(0.146021 -8.20731e-16 0)
(0.181231 -5.26875e-15 0)
(0.216987 3.14418e-14 0)
(0.253143 1.16125e-14 0)
(0.289606 1.10962e-14 0)
(0.326316 1.79441e-14 0)
(0.363232 -4.43585e-16 0)
(0.40033 3.27452e-14 0)
(0.437593 -1.17405e-14 0)
(0.475015 1.78895e-14 0)
(0.512594 1.17885e-14 0)
(0.550332 8.57282e-15 0)
(0.588234 2.648e-15 0)
(0.626302 3.18964e-14 0)
(0.664531 3.10343e-14 0)
(0.702906 5.70172e-14 0)
(0.741387 1.57979e-14 0)
(0.779893 5.50592e-14 0)
(0.818225 4.98417e-14 0)
(0.855856 3.71981e-14 0)
(0.891203 -2.60092e-14 0)
(0.919781 7.10768e-14 0)
(0.933758 4.84357e-14 0)
(0.933205 3.56749e-14 0)
(0.925534 2.97485e-14 0)
(0.926759 9.65125e-15 0)
(0.927531 5.09277e-15 0)
(0.927773 8.41707e-15 0)
(0.927973 8.4372e-15 0)
(0.928165 9.37593e-15 0)
(0.928436 6.25404e-15 0)
(0.928515 8.1703e-15 0)
(0.928298 1.4377e-14 0)
(0.928155 1.33269e-14 0)
(0.928164 1.23906e-14 0)
(0.928166 1.29958e-14 0)
(0.928115 7.25277e-15 0)
(0.928047 7.48497e-15 0)
(0.928025 1.35603e-15 0)
(0.928148 5.67455e-16 0)
(0.928509 3.63428e-15 0)
(0.928817 2.18231e-15 0)
(0.929201 -4.95059e-16 0)
(0.930226 -7.19777e-15 0)
(0.926602 -1.28179e-14 0)
(0.924708 -9.70327e-15 0)
(0.926119 -7.95002e-15 0)
(0.926711 -4.57606e-15 0)
(0.927731 -8.80709e-16 0)
(0.928886 -1.32713e-15 0)
(0.9292 -6.9467e-16 0)
(0.92856 9.13675e-16 0)
(0.927591 7.66103e-16 0)
(0.926522 7.23134e-16 0)
(0.92566 2.54576e-15 0)
(0.924526 2.48632e-16 0)
(0.919837 4.79935e-16 0)
(0.892169 -1.35762e-15 0)
(0.749402 -6.85738e-15 0)
(0.336475 1.04405e-15 0)
(0.0265118 -3.17655e-15 0)
(0.000180042 9.1925e-16 0)
(7.77599e-08 -8.54348e-16 0)
(2.3902e-12 2.73218e-16 0)
(-1.43082e-16 3.42607e-16 0)
(-9.66537e-18 1.50704e-16 0)
(1.89607e-16 3.25259e-17 0)
(-4.4821e-17 8.56517e-17 0)
(-3.0971e-16 3.46943e-16 0)
(-4.2405e-16 4.10911e-16 0)
(-4.49805e-16 3.24175e-16 0)
(-4.11995e-16 4.15248e-16 0)
(0 0 0)
(2.6074e-16 0 0)
(5.24012e-16 0 0)
(1.15671e-16 1.06251e-16 0)
(-3.52605e-16 3.44775e-16 0)
(-3.25288e-16 5.96309e-16 0)
(-3.53585e-16 2.75386e-16 0)
(-5.44038e-17 0 0)
(-6.92784e-18 0 0)
(2.53537e-16 0 0)
(5.81599e-16 0 0)
(2.16183e-16 2.1684e-18 0)
(-1.36171e-16 1.01915e-16 0)
(8.70924e-17 3.27428e-16 0)
(3.22667e-16 2.01661e-16 0)
(-4.67328e-17 9.54094e-17 0)
(-4.15188e-16 0 0)
(-2.19956e-16 0 0)
(2.93579e-14 1.2143e-16 0)
(2.89943e-10 2.75386e-15 0)
(2.81166e-07 9.31977e-15 0)
(3.63764e-05 5.11757e-15 0)
(0.0009135 3.05546e-15 0)
(0.00680035 2.9739e-14 0)
(0.022796 6.77699e-15 0)
(0.0480319 -2.10786e-14 0)
(0.0785407 1.90113e-16 0)
(0.111614 2.89407e-14 0)
(0.146021 6.88038e-16 0)
(0.181231 -1.17562e-14 0)
(0.216987 3.32456e-14 0)
(0.253143 7.20822e-15 0)
(0.289606 9.45591e-15 0)
(0.326316 1.60548e-14 0)
(0.363232 2.58709e-15 0)
(0.40033 2.9522e-14 0)
(0.437593 -1.03647e-14 0)
(0.475015 2.19845e-14 0)
(0.512594 1.83072e-14 0)
(0.550332 5.06913e-15 0)
(0.588234 5.24932e-15 0)
(0.626302 3.34447e-14 0)
(0.664531 3.18843e-14 0)
(0.702906 3.5141e-14 0)
(0.741387 6.63393e-15 0)
(0.779893 4.73494e-14 0)
(0.818225 2.71784e-14 0)
(0.855856 4.41505e-14 0)
(0.891203 -7.08584e-15 0)
(0.919781 4.7191e-14 0)
(0.933758 3.2873e-14 0)
(0.933205 2.36202e-14 0)
(0.925534 1.82583e-14 0)
(0.926759 1.67083e-14 0)
(0.927531 6.0902e-15 0)
(0.927773 7.3058e-15 0)
(0.927973 5.85866e-15 0)
(0.928165 8.17991e-15 0)
(0.928436 2.57491e-15 0)
(0.928515 1.38949e-15 0)
(0.928298 1.32789e-14 0)
(0.928155 1.15498e-14 0)
(0.928164 1.15488e-14 0)
(0.928166 1.27568e-14 0)
(0.928115 7.55833e-15 0)
(0.928047 9.94486e-15 0)
(0.928025 6.56634e-16 0)
(0.928148 3.10356e-15 0)
(0.928509 -1.20872e-16 0)
(0.928817 2.95935e-15 0)
(0.929201 -1.00606e-15 0)
(0.930226 -2.39365e-15 0)
(0.926602 -4.95359e-15 0)
(0.924708 -5.63425e-15 0)
(0.926119 -3.48264e-15 0)
(0.926711 -2.04815e-15 0)
(0.927731 1.21194e-16 0)
(0.928886 7.18672e-16 0)
(0.9292 4.15573e-15 0)
(0.92856 6.50008e-15 0)
(0.927591 7.86559e-15 0)
(0.926522 5.23326e-15 0)
(0.92566 7.26958e-15 0)
(0.924526 5.63258e-15 0)
(0.919837 3.06594e-15 0)
(0.892169 5.49977e-16 0)
(0.749402 -3.92862e-15 0)
(0.336475 6.0885e-15 0)
(0.0265118 -5.14799e-15 0)
(0.000180042 1.36262e-15 0)
(7.77599e-08 -2.27682e-16 0)
(2.39043e-12 5.69204e-16 0)
(-1.26617e-16 5.48604e-16 0)
(-7.40441e-17 4.11995e-16 0)
(9.47937e-17 3.08997e-16 0)
(-1.93088e-17 1.91903e-16 0)
(-2.67873e-16 4.01153e-16 0)
(-4.80858e-16 6.13656e-16 0)
(-5.62214e-16 5.20415e-16 0)
(-6.2233e-16 6.23414e-16 0)
(-2.1684e-18 -2.1684e-18 0)
(2.65795e-16 -2.1684e-18 0)
(5.67876e-16 -2.1684e-18 0)
(1.63315e-16 3.90311e-17 0)
(-3.08982e-16 2.86228e-16 0)
(-6.94762e-16 2.19008e-16 0)
(-3.77527e-16 -2.1684e-18 0)
(-2.60955e-17 -2.1684e-18 0)
(-2.21845e-17 0 0)
(1.83101e-16 0 0)
(4.20627e-16 -4.33679e-18 0)
(2.48093e-16 -4.55363e-17 0)
(1.32789e-16 3.14417e-16 0)
(1.72547e-16 6.72203e-16 0)
(2.84572e-16 4.14164e-16 0)
(-7.19899e-17 3.90311e-17 0)
(-4.24291e-16 -2.1684e-18 0)
(-2.76914e-16 1.17093e-16 0)
(2.92484e-14 3.10081e-16 0)
(2.89947e-10 2.95986e-15 0)
(2.81166e-07 9.80549e-15 0)
(3.63764e-05 1.39215e-15 0)
(0.0009135 4.15569e-15 0)
(0.00680035 2.33053e-14 0)
(0.022796 1.80926e-14 0)
(0.0480319 -2.61235e-14 0)
(0.0785407 -2.28599e-15 0)
(0.111614 3.11387e-14 0)
(0.146021 2.96716e-15 0)
(0.181231 -1.54515e-14 0)
(0.216987 2.99138e-14 0)
(0.253143 6.23534e-15 0)
(0.289606 7.66089e-15 0)
(0.326316 1.61052e-14 0)
(0.363232 2.15094e-15 0)
(0.40033 2.54136e-14 0)
(0.437593 -1.0215e-14 0)
(0.475015 2.40938e-14 0)
(0.512594 2.36367e-14 0)
(0.550332 -8.83432e-17 0)
(0.588234 9.55312e-15 0)
(0.626302 3.04192e-14 0)
(0.664531 2.73796e-14 0)
(0.702906 2.11485e-14 0)
(0.741387 2.65082e-15 0)
(0.779893 4.00518e-14 0)
(0.818225 1.77442e-14 0)
(0.855856 4.53017e-14 0)
(0.891203 -3.93358e-15 0)
(0.919781 3.28908e-14 0)
(0.933758 2.61721e-14 0)
(0.933205 2.15093e-14 0)
(0.925534 2.22328e-14 0)
(0.926759 1.16112e-14 0)
(0.927531 7.76828e-15 0)
(0.927773 6.22603e-15 0)
(0.927973 4.33553e-15 0)
(0.928165 1.01586e-14 0)
(0.928436 7.36144e-16 0)
(0.928515 2.05975e-15 0)
(0.928298 1.03117e-14 0)
(0.928155 9.85997e-15 0)
(0.928164 1.39644e-14 0)
(0.928166 1.15545e-14 0)
(0.928115 4.86657e-15 0)
(0.928047 7.32136e-15 0)
(0.928025 2.86585e-15 0)
(0.928148 5.07843e-15 0)
(0.928509 -1.22567e-15 0)
(0.928817 2.53825e-15 0)
(0.929201 5.93362e-17 0)
(0.930226 2.31924e-15 0)
(0.926602 -1.46623e-15 0)
(0.924708 -9.77056e-16 0)
(0.926119 6.52898e-16 0)
(0.926711 -1.01045e-15 0)
(0.927731 4.19351e-15 0)
(0.928886 5.03737e-15 0)
(0.9292 5.73346e-15 0)
(0.92856 9.08968e-15 0)
(0.927591 1.10916e-14 0)
(0.926522 8.63363e-15 0)
(0.92566 8.01316e-15 0)
(0.924526 7.59657e-15 0)
(0.919837 4.41489e-15 0)
(0.892169 2.69058e-15 0)
(0.749402 -6.68927e-16 0)
(0.336475 6.70667e-15 0)
(0.0265118 -3.67895e-15 0)
(0.000180042 2.41845e-15 0)
(7.77599e-08 -3.08996e-16 0)
(2.39002e-12 3.59954e-16 0)
(-2.05572e-16 4.88973e-16 0)
(-2.0816e-16 6.17993e-16 0)
(-1.01442e-16 5.97393e-16 0)
(-1.84346e-16 4.38016e-16 0)
(-1.65923e-16 2.99239e-16 0)
(-3.88291e-16 3.70796e-16 0)
(-7.03885e-16 2.80807e-16 0)
(-8.82537e-16 3.69712e-16 0)
(-2.1684e-18 2.1684e-18 0)
(2.6987e-16 2.1684e-18 0)
(6.00494e-16 2.1684e-18 0)
(1.62285e-16 1.64798e-16 0)
(-6.47782e-16 -1.6263e-16 0)
(-6.84058e-16 -5.46436e-16 0)
(-3.3494e-16 -2.40692e-16 0)
(9.99412e-18 2.1684e-18 0)
(-3.60367e-17 0 0)
(1.96795e-16 -2.1684e-18 0)
(4.42793e-16 1.12757e-16 0)
(2.62907e-16 2.92734e-16 0)
(3.52072e-16 1.2143e-16 0)
(1.70119e-16 3.03576e-16 0)
(2.44449e-16 1.19262e-16 0)
(-1.22544e-16 9.32411e-17 0)
(-4.82748e-16 2.1684e-18 0)
(-2.39906e-16 2.1684e-18 0)
(2.96208e-14 8.89043e-17 0)
(2.89948e-10 1.52005e-15 0)
(2.81166e-07 5.3863e-15 0)
(3.63764e-05 1.84319e-15 0)
(0.0009135 -2.94696e-15 0)
(0.00680035 2.12858e-14 0)
(0.022796 2.19061e-14 0)
(0.0480319 -2.45356e-14 0)
(0.0785407 5.01943e-16 0)
(0.111614 2.82001e-14 0)
(0.146021 2.98928e-15 0)
(0.181231 -1.98221e-14 0)
(0.216987 2.4994e-14 0)
(0.253143 1.91338e-15 0)
(0.289606 5.57042e-15 0)
(0.326316 1.34398e-14 0)
(0.363232 -2.96369e-15 0)
(0.40033 2.17763e-14 0)
(0.437593 -1.20669e-14 0)
(0.475015 2.18148e-14 0)
(0.512594 2.57863e-14 0)
(0.550332 -3.07258e-15 0)
(0.588234 1.35237e-14 0)
(0.626302 2.41177e-14 0)
(0.664531 2.65758e-14 0)
(0.702906 1.347e-14 0)
(0.741387 1.75062e-15 0)
(0.779893 3.2729e-14 0)
(0.818225 1.38214e-14 0)
(0.855856 3.80675e-14 0)
(0.891203 -2.2814e-15 0)
(0.919781 2.8233e-14 0)
(0.933758 2.01782e-14 0)
(0.933205 1.37659e-14 0)
(0.925534 1.92391e-14 0)
(0.926759 2.76672e-15 0)
(0.927531 6.81029e-15 0)
(0.927773 6.09368e-15 0)
(0.927973 3.81435e-15 0)
(0.928165 1.17594e-14 0)
(0.928436 -1.95075e-15 0)
(0.928515 1.53511e-15 0)
(0.928298 1.0435e-14 0)
(0.928155 1.03904e-14 0)
(0.928164 1.42395e-14 0)
(0.928166 7.02799e-15 0)
(0.928115 5.39089e-15 0)
(0.928047 2.52598e-15 0)
(0.928025 1.90659e-15 0)
(0.928148 7.63837e-15 0)
(0.928509 -1.63583e-15 0)
(0.928817 2.84151e-15 0)
(0.929201 -9.57349e-16 0)
(0.930226 7.70809e-15 0)
(0.926602 -4.64055e-15 0)
(0.924708 2.3923e-15 0)
(0.926119 3.35247e-15 0)
(0.926711 9.75993e-16 0)
(0.927731 7.57615e-15 0)
(0.928886 4.26897e-15 0)
(0.9292 5.26147e-15 0)
(0.92856 9.47592e-15 0)
(0.927591 1.20229e-14 0)
(0.926522 8.05983e-15 0)
(0.92566 7.32174e-15 0)
(0.924526 6.78775e-15 0)
(0.919837 6.31256e-15 0)
(0.892169 5.00279e-15 0)
(0.749402 1.30954e-15 0)
(0.336475 4.81913e-15 0)
(0.0265118 1.99793e-15 0)
(0.000180042 -1.68023e-16 0)
(7.77599e-08 -5.78962e-16 0)
(2.3903e-12 -3.85975e-16 0)
(6.12203e-17 1.16009e-16 0)
(4.51162e-17 4.85721e-16 0)
(3.18961e-17 7.34002e-16 0)
(-1.98568e-16 6.58108e-16 0)
(-3.91294e-16 2.49366e-16 0)
(-6.17084e-16 -1.06251e-16 0)
(-8.74872e-16 -6.61361e-17 0)
(-1.06468e-15 -1.94071e-16 0)
(2.1684e-18 0 0)
(2.5092e-16 -1.51788e-17 0)
(3.27406e-16 -2.4286e-16 0)
(-1.30599e-16 -4.94394e-16 0)
(-7.18099e-16 -6.24498e-16 0)
(-3.78958e-16 -2.77555e-16 0)
(-4.69014e-17 -2.1684e-17 0)
(7.55178e-17 0 0)
(-3.6837e-17 0 0)
(2.09974e-16 8.23991e-17 0)
(4.68121e-16 3.81638e-16 0)
(2.60818e-16 5.74625e-16 0)
(-1.57712e-17 2.92734e-16 0)
(5.96787e-17 -6.50519e-17 0)
(2.98656e-16 -6.50519e-17 0)
(-6.0897e-17 -9.54094e-17 0)
(-4.16905e-16 0 0)
(-2.86749e-16 -1.01915e-16 0)
(2.92908e-14 -3.81638e-16 0)
(2.89952e-10 2.43511e-15 0)
(2.81166e-07 4.12212e-15 0)
(3.63764e-05 -2.35278e-15 0)
(0.0009135 -5.0107e-15 0)
(0.00680035 1.53449e-14 0)
(0.022796 1.90841e-14 0)
(0.0480319 -1.51065e-14 0)
(0.0785407 -5.18636e-15 0)
(0.111614 2.34498e-14 0)
(0.146021 8.98135e-16 0)
(0.181231 -1.77293e-14 0)
(0.216987 2.12139e-14 0)
(0.253143 -3.25193e-16 0)
(0.289606 6.42751e-15 0)
(0.326316 1.19536e-14 0)
(0.363232 -5.25604e-15 0)
(0.40033 1.7768e-14 0)
(0.437593 -1.19443e-14 0)
(0.475015 1.93067e-14 0)
(0.512594 2.41912e-14 0)
(0.550332 -4.98079e-15 0)
(0.588234 1.45251e-14 0)
(0.626302 1.72546e-14 0)
(0.664531 2.24764e-14 0)
(0.702906 8.30714e-15 0)
(0.741387 1.82475e-15 0)
(0.779893 2.33757e-14 0)
(0.818225 1.5417e-14 0)
(0.855856 2.71675e-14 0)
(0.891203 3.60609e-15 0)
(0.919781 2.64936e-14 0)
(0.933758 1.56644e-14 0)
(0.933205 1.0989e-14 0)
(0.925534 1.05814e-14 0)
(0.926759 5.62113e-15 0)
(0.927531 6.21329e-15 0)
(0.927773 5.29483e-15 0)
(0.927973 2.87445e-15 0)
(0.928165 1.03619e-14 0)
(0.928436 -3.55951e-15 0)
(0.928515 8.6358e-16 0)
(0.928298 7.46212e-15 0)
(0.928155 9.54916e-15 0)
(0.928164 1.15475e-14 0)
(0.928166 4.17441e-15 0)
(0.928115 5.00397e-15 0)
(0.928047 2.27005e-15 0)
(0.928025 5.11452e-16 0)
(0.928148 6.40813e-15 0)
(0.928509 -3.48613e-15 0)
(0.928817 2.61467e-15 0)
(0.929201 6.13731e-16 0)
(0.930226 6.18529e-15 0)
(0.926602 -4.39971e-15 0)
(0.924708 2.01524e-15 0)
(0.926119 5.3657e-15 0)
(0.926711 3.2941e-15 0)
(0.927731 6.62714e-15 0)
(0.928886 1.35174e-15 0)
(0.9292 2.84574e-15 0)
(0.92856 6.51441e-15 0)
(0.927591 9.51696e-15 0)
(0.926522 5.27162e-15 0)
(0.92566 8.04742e-15 0)
(0.924526 4.68103e-15 0)
(0.919837 3.23225e-15 0)
(0.892169 3.80733e-15 0)
(0.749402 -1.97021e-16 0)
(0.336475 1.85288e-15 0)
(0.0265118 5.96518e-15 0)
(0.000180042 -2.48133e-15 0)
(7.77599e-08 5.4752e-16 0)
(2.39067e-12 -4.0549e-16 0)
(4.21256e-16 -1.78893e-16 0)
(3.57794e-16 1.61546e-16 0)
(1.36145e-16 4.70542e-16 0)
(-2.94177e-16 4.22837e-16 0)
(-6.22142e-16 7.58939e-18 0)
(-8.3574e-16 -2.54787e-16 0)
(-7.32441e-16 -2.43945e-16 0)
(-8.35917e-16 -3.45859e-16 0)
(4.98731e-17 0 0)
(2.90489e-16 -2.10334e-16 0)
(8.79737e-19 -5.6812e-16 0)
(-1.78904e-16 -9.47589e-16 0)
(-3.74578e-16 -7.4376e-16 0)
(-3.39727e-17 -3.77301e-16 0)
(2.39633e-16 -4.33679e-18 0)
(1.85063e-16 3.25259e-17 0)
(-1.70201e-17 0 0)
(2.2395e-16 0 0)
(4.29517e-16 1.19262e-16 0)
(3.93846e-17 2.88397e-16 0)
(-2.78796e-16 2.60208e-17 0)
(-2.46512e-17 -5.20415e-17 0)
(2.33743e-16 0 0)
(-4.1814e-17 -9.32411e-17 0)
(-3.08066e-16 0 0)
(-4.62862e-16 0 0)
(2.92918e-14 -1.38777e-16 0)
(2.89953e-10 3.46943e-16 0)
(2.81166e-07 9.36748e-16 0)
(3.63764e-05 -3.20716e-15 0)
(0.0009135 -4.92823e-15 0)
(0.00680035 1.11532e-14 0)
(0.022796 1.00334e-14 0)
(0.0480319 6.96823e-16 0)
(0.0785407 -1.11054e-14 0)
(0.111614 2.28367e-14 0)
(0.146021 -1.59969e-15 0)
(0.181231 -1.17511e-14 0)
(0.216987 2.02388e-14 0)
(0.253143 -1.39793e-15 0)
(0.289606 5.57599e-15 0)
(0.326316 1.3663e-14 0)
(0.363232 -5.0149e-15 0)
(0.40033 1.28669e-14 0)
(0.437593 -7.28028e-15 0)
(0.475015 1.58478e-14 0)
(0.512594 1.98801e-14 0)
(0.550332 -4.86771e-15 0)
(0.588234 1.25013e-14 0)
(0.626302 1.36893e-14 0)
(0.664531 1.90224e-14 0)
(0.702906 7.00902e-15 0)
(0.741387 5.30375e-15 0)
(0.779893 1.5723e-14 0)
(0.818225 2.22889e-14 0)
(0.855856 1.52147e-14 0)
(0.891203 9.66653e-15 0)
(0.919781 2.38833e-14 0)
(0.933758 1.62463e-14 0)
(0.933205 1.25519e-14 0)
(0.925534 8.50976e-15 0)
(0.926759 6.60046e-15 0)
(0.927531 6.97536e-15 0)
(0.927773 4.40562e-15 0)
(0.927973 4.06253e-15 0)
(0.928165 8.37145e-15 0)
(0.928436 -3.4644e-16 0)
(0.928515 4.90962e-15 0)
(0.928298 4.59283e-15 0)
(0.928155 6.69016e-15 0)
(0.928164 8.17059e-15 0)
(0.928166 4.89681e-15 0)
(0.928115 4.17473e-15 0)
(0.928047 4.36742e-15 0)
(0.928025 1.87046e-15 0)
(0.928148 5.5927e-15 0)
(0.928509 -2.23577e-15 0)
(0.928817 1.63734e-15 0)
(0.929201 2.84105e-15 0)
(0.930226 3.71722e-15 0)
(0.926602 -1.55459e-15 0)
(0.924708 1.2673e-15 0)
(0.926119 3.71982e-15 0)
(0.926711 3.26994e-15 0)
(0.927731 4.15397e-15 0)
(0.928886 1.6593e-15 0)
(0.9292 2.09783e-15 0)
(0.92856 4.16372e-15 0)
(0.927591 5.52228e-15 0)
(0.926522 4.03401e-15 0)
(0.92566 5.32574e-15 0)
(0.924526 3.44401e-15 0)
(0.919837 2.30009e-15 0)
(0.892169 2.25816e-15 0)
(0.749402 9.79205e-16 0)
(0.336475 4.62188e-16 0)
(0.0265118 1.74779e-15 0)
(0.000180042 -3.0461e-16 0)
(7.77599e-08 -2.0925e-16 0)
(2.39075e-12 -1.61546e-16 0)
(5.92492e-16 -9.8662e-17 0)
(4.81339e-16 0 0)
(1.75979e-16 0 0)
(-3.28048e-16 8.13149e-17 0)
(-6.79068e-16 9.54094e-17 0)
(-7.31708e-16 -6.28835e-17 0)
(-6.29227e-16 -4.01153e-17 0)
(-6.23414e-16 -1.34441e-16 0)
(4.18501e-16 1.99492e-16 0)
(4.01352e-16 0 0)
(-1.14976e-17 -2.36355e-16 0)
(-1.37475e-16 -5.89804e-16 0)
(-8.75918e-17 -3.57785e-16 0)
(1.0301e-16 -3.68627e-17 0)
(4.2948e-16 2.45029e-16 0)
(2.23533e-16 4.48858e-16 0)
(1.558e-17 2.90565e-16 0)
(2.69654e-16 8.89043e-17 0)
(4.3742e-16 0 0)
(6.88608e-17 0 0)
(-2.98713e-16 0 0)
(-8.30708e-18 -7.37255e-17 0)
(2.4145e-16 0 0)
(-6.14208e-17 9.32411e-17 0)
(-3.7226e-16 9.54094e-17 0)
(-5.38213e-16 0 0)
(2.90831e-14 -5.20415e-17 0)
(2.89953e-10 -4.22837e-16 0)
(2.81166e-07 -1.89952e-15 0)
(3.63764e-05 -9.88819e-16 0)
(0.0009135 -3.30936e-15 0)
(0.00680035 8.38781e-15 0)
(0.022796 -4.36729e-15 0)
(0.0480319 1.44244e-14 0)
(0.0785407 -1.36359e-14 0)
(0.111614 2.00102e-14 0)
(0.146021 -3.92673e-15 0)
(0.181231 -7.86068e-15 0)
(0.216987 1.83266e-14 0)
(0.253143 -3.65134e-15 0)
(0.289606 5.82127e-15 0)
(0.326316 1.43167e-14 0)
(0.363232 -5.3007e-15 0)
(0.40033 8.55535e-15 0)
(0.437593 -2.90447e-15 0)
(0.475015 1.25619e-14 0)
(0.512594 1.33922e-14 0)
(0.550332 -3.15032e-15 0)
(0.588234 1.00236e-14 0)
(0.626302 1.00338e-14 0)
(0.664531 1.51856e-14 0)
(0.702906 5.98441e-15 0)
(0.741387 8.56353e-15 0)
(0.779893 7.98464e-15 0)
(0.818225 2.76577e-14 0)
(0.855856 4.17142e-15 0)
(0.891203 1.49383e-14 0)
(0.919781 2.40979e-14 0)
(0.933758 1.65263e-14 0)
(0.933205 1.20368e-14 0)
(0.925534 8.73315e-15 0)
(0.926759 8.03895e-15 0)
(0.927531 6.33129e-15 0)
(0.927773 3.91091e-15 0)
(0.927973 5.29453e-15 0)
(0.928165 7.59161e-15 0)
(0.928436 1.25087e-15 0)
(0.928515 6.17129e-15 0)
(0.928298 4.20064e-15 0)
(0.928155 6.30244e-15 0)
(0.928164 5.64846e-15 0)
(0.928166 5.14919e-15 0)
(0.928115 2.77952e-15 0)
(0.928047 4.45359e-15 0)
(0.928025 1.6981e-15 0)
(0.928148 6.65888e-15 0)
(0.928509 -8.33208e-16 0)
(0.928817 2.15335e-15 0)
(0.929201 1.60739e-15 0)
(0.930226 2.78444e-16 0)
(0.926602 1.21075e-15 0)
(0.924708 1.2411e-15 0)
(0.926119 1.45397e-15 0)
(0.926711 2.64516e-15 0)
(0.927731 2.35455e-15 0)
(0.928886 2.30057e-15 0)
(0.9292 2.76025e-15 0)
(0.92856 2.33893e-15 0)
(0.927591 2.04311e-15 0)
(0.926522 2.08502e-15 0)
(0.92566 9.13364e-16 0)
(0.924526 2.21057e-15 0)
(0.919837 1.66617e-15 0)
(0.892169 4.30325e-16 0)
(0.749402 2.08523e-15 0)
(0.336475 -7.23819e-16 0)
(0.0265118 -6.81522e-16 0)
(0.000180042 1.22169e-15 0)
(7.77599e-08 -7.18823e-16 0)
(2.39081e-12 -7.58939e-18 0)
(6.62026e-16 -3.68627e-17 0)
(5.89371e-16 -1.8865e-16 0)
(3.75207e-16 -3.50196e-16 0)
(-2.33028e-17 -8.99885e-17 0)
(-6.02415e-16 2.2985e-16 0)
(-8.9211e-16 1.90819e-16 0)
(-7.90919e-16 2.91649e-16 0)
(-7.4376e-16 2.25513e-16 0)
(8.1098e-16 4.87889e-16 0)
(5.4501e-16 1.84314e-16 0)
(-3.21646e-17 1.25767e-16 0)
(-3.03122e-16 -2.23345e-16 0)
(-1.44752e-16 2.1684e-18 0)
(2.89288e-16 1.27935e-16 0)
(4.9124e-16 5.6812e-16 0)
(2.2782e-16 8.30496e-16 0)
(2.5192e-17 6.28835e-16 0)
(2.8081e-16 3.3827e-16 0)
(3.76418e-16 1.53956e-16 0)
(7.14675e-17 -1.53956e-16 0)
(-2.37742e-16 -7.80623e-17 0)
(-8.84453e-18 -2.58039e-16 0)
(2.45842e-16 -4.11995e-17 0)
(-9.86319e-17 4.11995e-17 0)
(-4.06896e-16 3.5128e-16 0)
(-5.40276e-16 1.69135e-16 0)
(2.89391e-14 -3.25259e-17 0)
(2.89952e-10 -2.45029e-15 0)
(2.81166e-07 -6.86948e-15 0)
(3.63764e-05 -3.11174e-15 0)
(0.0009135 4.35534e-15 0)
(0.00680035 1.62042e-15 0)
(0.022796 -1.59537e-14 0)
(0.0480319 2.10628e-14 0)
(0.0785407 -1.35896e-14 0)
(0.111614 1.74806e-14 0)
(0.146021 -5.57679e-15 0)
(0.181231 -3.50659e-15 0)
(0.216987 1.82834e-14 0)
(0.253143 -5.29754e-15 0)
(0.289606 7.49226e-15 0)
(0.326316 1.59641e-14 0)
(0.363232 -3.80173e-15 0)
(0.40033 6.73284e-15 0)
(0.437593 2.17994e-15 0)
(0.475015 1.11051e-14 0)
(0.512594 5.60082e-15 0)
(0.550332 -1.26154e-15 0)
(0.588234 8.79158e-15 0)
(0.626302 6.95326e-15 0)
(0.664531 1.27852e-14 0)
(0.702906 6.93248e-15 0)
(0.741387 1.08098e-14 0)
(0.779893 4.46339e-16 0)
(0.818225 2.92214e-14 0)
(0.855856 -3.82084e-15 0)
(0.891203 1.57834e-14 0)
(0.919781 2.5268e-14 0)
(0.933758 1.57859e-14 0)
(0.933205 1.22152e-14 0)
(0.925534 9.63968e-15 0)
(0.926759 1.0255e-14 0)
(0.927531 4.23114e-15 0)
(0.927773 2.5919e-15 0)
(0.927973 6.46225e-15 0)
(0.928165 5.28295e-15 0)
(0.928436 2.11236e-15 0)
(0.928515 8.19797e-15 0)
(0.928298 4.8668e-15 0)
(0.928155 6.84589e-15 0)
(0.928164 2.68176e-15 0)
(0.928166 6.01371e-15 0)
(0.928115 3.14882e-15 0)
(0.928047 4.29615e-15 0)
(0.928025 1.10212e-15 0)
(0.928148 4.79971e-15 0)
(0.928509 9.40446e-16 0)
(0.928817 1.78333e-15 0)
(0.929201 1.67425e-15 0)
(0.930226 -1.08209e-15 0)
(0.926602 5.81747e-15 0)
(0.924708 3.50959e-15 0)
(0.926119 1.39017e-15 0)
(0.926711 2.82102e-15 0)
(0.927731 1.44251e-15 0)
(0.928886 2.75115e-15 0)
(0.9292 2.13366e-15 0)
(0.92856 1.85702e-16 0)
(0.927591 -7.80934e-16 0)
(0.926522 -3.53896e-16 0)
(0.92566 -2.94005e-15 0)
(0.924526 1.07178e-15 0)
(0.919837 -1.55735e-15 0)
(0.892169 -2.25921e-15 0)
(0.749402 2.22799e-15 0)
(0.336475 -3.45485e-15 0)
(0.0265118 -1.11185e-15 0)
(0.000180042 2.85531e-15 0)
(7.77599e-08 5.99562e-16 0)
(2.39077e-12 1.6263e-17 0)
(5.76927e-16 4.98731e-17 0)
(5.54753e-16 -3.79469e-16 0)
(4.08309e-16 -5.89804e-16 0)
(1.3181e-16 -3.13333e-16 0)
(-4.25308e-16 7.58939e-17 0)
(-8.45359e-16 3.94648e-16 0)
(-8.91378e-16 5.43183e-16 0)
(-9.93126e-16 4.75963e-16 0)
(1.04734e-15 2.40692e-16 0)
(6.16347e-16 1.04083e-16 0)
(-2.31401e-17 1.34441e-16 0)
(-3.2627e-16 2.68881e-16 0)
(3.30938e-18 1.06251e-16 0)
(4.05543e-16 2.75386e-16 0)
(6.76168e-16 3.85975e-16 0)
(2.94436e-16 4.83552e-16 0)
(-1.573e-16 4.42353e-16 0)
(3.03355e-16 2.60208e-16 0)
(4.91072e-18 -4.33679e-17 0)
(-1.60562e-16 -2.60208e-16 0)
(-2.24776e-16 -1.73472e-17 0)
(-2.38611e-17 1.06251e-16 0)
(2.60542e-16 3.03576e-17 0)
(9.47214e-17 -1.51788e-16 0)
(-2.41405e-16 1.32272e-16 0)
(-5.96538e-16 2.40692e-16 0)
(2.88432e-14 8.67359e-17 0)
(2.89949e-10 -7.95802e-16 0)
(2.81166e-07 -4.25656e-15 0)
(3.63764e-05 -3.56495e-15 0)
(0.0009135 9.1512e-15 0)
(0.00680035 -4.07832e-16 0)
(0.022796 -1.93859e-14 0)
(0.0480319 2.10888e-14 0)
(0.0785407 -8.2583e-15 0)
(0.111614 1.10975e-14 0)
(0.146021 -4.82732e-15 0)
(0.181231 -1.25543e-15 0)
(0.216987 1.35976e-14 0)
(0.253143 -6.98288e-15 0)
(0.289606 7.13827e-15 0)
(0.326316 1.44262e-14 0)
(0.363232 -2.46354e-15 0)
(0.40033 5.99552e-15 0)
(0.437593 4.45543e-15 0)
(0.475015 1.0998e-14 0)
(0.512594 -2.87974e-15 0)
(0.550332 2.47361e-15 0)
(0.588234 8.29731e-15 0)
(0.626302 3.61088e-15 0)
(0.664531 9.19736e-15 0)
(0.702906 7.29477e-15 0)
(0.741387 1.1477e-14 0)
(0.779893 -8.7399e-16 0)
(0.818225 2.68828e-14 0)
(0.855856 -8.77396e-15 0)
(0.891203 1.71498e-14 0)
(0.919781 1.77222e-14 0)
(0.933758 1.5642e-14 0)
(0.933205 1.41077e-14 0)
(0.925534 1.22289e-14 0)
(0.926759 7.35005e-15 0)
(0.927531 6.75558e-15 0)
(0.927773 4.70786e-15 0)
(0.927973 7.3592e-15 0)
(0.928165 2.12094e-15 0)
(0.928436 3.68136e-15 0)
(0.928515 7.38176e-15 0)
(0.928298 6.04178e-15 0)
(0.928155 5.60517e-15 0)
(0.928164 2.69925e-15 0)
(0.928166 5.21674e-15 0)
(0.928115 2.88554e-15 0)
(0.928047 4.46331e-15 0)
(0.928025 1.40475e-15 0)
(0.928148 1.72585e-15 0)
(0.928509 1.06463e-15 0)
(0.928817 1.55891e-15 0)
(0.929201 3.1767e-15 0)
(0.930226 -1.12146e-15 0)
(0.926602 4.1725e-15 0)
(0.924708 4.32997e-15 0)
(0.926119 1.85013e-15 0)
(0.926711 3.13264e-15 0)
(0.927731 1.01834e-15 0)
(0.928886 3.60002e-15 0)
(0.9292 1.35811e-15 0)
(0.92856 -1.55519e-16 0)
(0.927591 -1.30258e-15 0)
(0.926522 -8.30019e-16 0)
(0.92566 -2.53144e-15 0)
(0.924526 -2.16709e-15 0)
(0.919837 -2.83495e-15 0)
(0.892169 -2.83437e-15 0)
(0.749402 1.2942e-15 0)
(0.336475 -3.75363e-15 0)
(0.0265118 1.25705e-15 0)
(0.000180042 1.22278e-15 0)
(7.77599e-08 1.78567e-15 0)
(2.39091e-12 2.87313e-16 0)
(2.10443e-16 5.85467e-17 0)
(3.26667e-16 -1.56125e-16 0)
(5.27683e-16 -3.53449e-16 0)
(2.55211e-16 -2.19008e-16 0)
(-2.70674e-16 -1.30104e-16 0)
(-6.68082e-16 2.15755e-16 0)
(-9.51482e-16 3.39354e-16 0)
(-1.18069e-15 3.46943e-16 0)
(8.28327e-16 -2.1684e-18 0)
(5.01977e-16 2.55871e-16 0)
(5.00379e-17 3.05744e-16 0)
(-5.02968e-18 5.85467e-16 0)
(2.06135e-16 3.85975e-16 0)
(4.23504e-16 5.52941e-16 0)
(4.18899e-16 3.83806e-16 0)
(1.6962e-16 1.34441e-16 0)
(9.69513e-17 1.97324e-16 0)
(-9.10594e-17 -1.34441e-16 0)
(-3.25952e-16 -3.83806e-16 0)
(-6.9186e-17 -1.27935e-16 0)
(-2.31553e-16 2.21176e-16 0)
(1.77829e-17 4.77047e-16 0)
(2.36236e-16 2.64544e-16 0)
(8.57003e-17 3.03576e-17 0)
(-1.11685e-16 1.17093e-16 0)
(-3.81302e-16 3.98985e-16 0)
(2.89928e-14 1.79977e-16 0)
(2.89949e-10 1.76724e-15 0)
(2.81166e-07 2.34621e-15 0)
(3.63764e-05 -9.36776e-16 0)
(0.0009135 3.68478e-15 0)
(0.00680035 4.98776e-15 0)
(0.022796 -1.60908e-14 0)
(0.0480319 1.59874e-14 0)
(0.0785407 -2.28251e-15 0)
(0.111614 2.40198e-15 0)
(0.146021 -8.72334e-17 0)
(0.181231 1.92432e-15 0)
(0.216987 8.32479e-15 0)
(0.253143 -8.0772e-15 0)
(0.289606 5.59411e-15 0)
(0.326316 1.33793e-14 0)
(0.363232 6.41561e-16 0)
(0.40033 3.02931e-15 0)
(0.437593 5.06212e-15 0)
(0.475015 1.18714e-14 0)
(0.512594 -6.40947e-15 0)
(0.550332 5.79708e-15 0)
(0.588234 6.928e-15 0)
(0.626302 1.27035e-15 0)
(0.664531 5.02121e-15 0)
(0.702906 4.38013e-15 0)
(0.741387 1.21728e-14 0)
(0.779893 6.78304e-16 0)
(0.818225 2.32705e-14 0)
(0.855856 -1.42435e-14 0)
(0.891203 1.81519e-14 0)
(0.919781 1.57796e-14 0)
(0.933758 1.31628e-14 0)
(0.933205 1.18414e-14 0)
(0.925534 1.13392e-14 0)
(0.926759 4.71108e-15 0)
(0.927531 5.81158e-15 0)
(0.927773 4.81252e-15 0)
(0.927973 6.65761e-15 0)
(0.928165 7.39116e-16 0)
(0.928436 8.64604e-15 0)
(0.928515 3.60408e-15 0)
(0.928298 4.93131e-15 0)
(0.928155 2.86853e-15 0)
(0.928164 5.16795e-15 0)
(0.928166 3.99947e-15 0)
(0.928115 1.06562e-15 0)
(0.928047 2.02966e-15 0)
(0.928025 3.39156e-15 0)
(0.928148 8.08183e-16 0)
(0.928509 7.77194e-16 0)
(0.928817 3.27226e-15 0)
(0.929201 3.44858e-15 0)
(0.930226 2.68938e-15 0)
(0.926602 2.5235e-15 0)
(0.924708 3.22346e-15 0)
(0.926119 2.86061e-15 0)
(0.926711 3.62269e-15 0)
(0.927731 3.4797e-15 0)
(0.928886 3.73074e-15 0)
(0.9292 1.84853e-15 0)
(0.92856 2.5722e-15 0)
(0.927591 2.07942e-15 0)
(0.926522 1.24477e-15 0)
(0.92566 1.18134e-15 0)
(0.924526 -4.768e-16 0)
(0.919837 -5.32291e-16 0)
(0.892169 -1.92019e-15 0)
(0.749402 -3.26795e-15 0)
(0.336475 -2.77313e-16 0)
(0.0265118 2.15268e-15 0)
(0.000180042 -2.32739e-15 0)
(7.77599e-08 1.03975e-15 0)
(2.3905e-12 1.26851e-16 0)
(1.54373e-16 2.80807e-16 0)
(2.09621e-16 3.15502e-16 0)
(3.23244e-16 1.38777e-16 0)
(5.95706e-17 -1.53956e-16 0)
(-3.3777e-16 -3.05744e-16 0)
(-6.32545e-16 -7.58939e-18 0)
(-8.75938e-16 8.99885e-17 0)
(-1.07986e-15 2.43945e-16 0)
(1.02348e-15 -2.1684e-16 0)
(6.13512e-16 -9.97462e-17 0)
(8.58209e-17 -4.77047e-17 0)
(-2.88912e-17 2.62376e-16 0)
(3.19293e-16 2.03829e-16 0)
(6.45286e-16 2.55871e-16 0)
(3.18174e-16 -6.72203e-17 0)
(1.42217e-16 -3.96817e-16 0)
(-1.68309e-16 -2.73218e-16 0)
(-4.20732e-16 -5.20415e-16 0)
(-8.42253e-17 -1.77809e-16 0)
(1.88897e-16 1.30104e-16 0)
(-4.79535e-17 3.68627e-17 0)
(-2.13708e-16 2.51534e-16 0)
(-4.20184e-17 -4.33679e-18 0)
(2.69575e-16 -9.10727e-17 0)
(1.78307e-16 -1.82145e-16 0)
(-2.15738e-18 -4.33679e-18 0)
(2.8711e-14 2.88888e-33 0)
(2.89952e-10 9.64936e-16 0)
(2.81166e-07 4.49292e-15 0)
(3.63764e-05 1.9256e-15 0)
(0.0009135 -6.00242e-15 0)
(0.00680035 8.59718e-15 0)
(0.022796 -1.47223e-14 0)
(0.0480319 1.45102e-14 0)
(0.0785407 1.54177e-16 0)
(0.111614 -3.02574e-15 0)
(0.146021 4.67866e-15 0)
(0.181231 4.68221e-15 0)